
                                 *****************
                                 * O   R   C   A *
                                 *****************

           --- An Ab Initio, DFT and Semiempirical electronic structure package ---

                  #######################################################
                  #                        -***-                        #
                  #  Department of molecular theory and spectroscopy    #
                  #              Directorship: Frank Neese              #
                  # Max Planck Institute for Chemical Energy Conversion #
                  #                  D-45470 Muelheim/Ruhr              #
                  #                       Germany                       #
                  #                                                     #
                  #                  All rights reserved                #
                  #                        -***-                        #
                  #######################################################


                         Program Version 4.0.0.2 - RELEASE -


 With contributions from (in alphabetic order):
   Daniel Aravena         : Magnetic Properties
   Michael Atanasov       : Ab Initio Ligand Field Theory
   Ute Becker             : Parallelization
   Martin Brehm           : Molecular dynamics
   Dmytro Bykov           : SCF Hessian
   Vijay G. Chilkuri      : MRCI spin determinant printing
   Dipayan Datta          : RHF DLPNO-CCSD density
   Achintya Kumar Dutta   : EOM-CC, STEOM-CC
   Dmitry Ganyushin       : Spin-Orbit,Spin-Spin,Magnetic field MRCI
   Yang Guo               : DLPNO-NEVPT2, CIM, IAO-localization
   Andreas Hansen         : Spin unrestricted coupled pair/coupled cluster methods
   Lee Huntington         : MR-EOM, pCC
   Robert Izsak           : Overlap fitted RIJCOSX, COSX-SCS-MP3, EOM
   Christian Kollmar      : KDIIS, OOCD, Brueckner-CCSD(T), CCSD density
   Simone Kossmann        : Meta GGA functionals, TD-DFT gradient, OOMP2, MP2 Hessian
   Martin Krupicka        : AUTO-CI
   Dagmar Lenk            : GEPOL surface
   Dimitrios Liakos       : Extrapolation schemes; parallel MDCI
   Dimitrios Manganas     : ROCIS; embedding schemes
   Dimitrios Pantazis     : SARC Basis sets
   Taras Petrenko         : DFT Hessian,TD-DFT gradient, ASA, ECA, R-Raman, ABS, FL, XAS/XES, NRVS
   Peter Pinski           : DLPNO-MP2
   Christoph Reimann      : Effective Core Potentials
   Marius Retegan         : Local ZFS, SOC
   Christoph Riplinger    : Optimizer, TS searches, QM/MM, DLPNO-CCSD(T), (RO)-DLPNO pert. Triples
   Tobias Risthaus        : Range-separated hybrids, TD-DFT gradient, RPA, STAB
   Michael Roemelt        : Restricted open shell CIS
   Masaaki Saitow         : Open-shell DLPNO
   Barbara Sandhoefer     : DKH picture change effects
   Kantharuban Sivalingam : CASSCF convergence, NEVPT2, FIC-MRCI
   Georgi Stoychev        : AutoAux
   Boris Wezisla          : Elementary symmetry handling
   Frank Wennmohs         : Technical directorship


 We gratefully acknowledge several colleagues who have allowed us to
 interface, adapt or use parts of their codes:
   Stefan Grimme, W. Hujo, H. Kruse,             : VdW corrections, initial TS optimization,
                  C. Bannwarth                     DFT functionals, gCP, sTDA/sTD-DF
   Ed Valeev                                     : LibInt (2-el integral package), F12 methods
   Garnet Chan, S. Sharma, J. Yang, R. Olivares  : DMRG
   Ulf Ekstrom                                   : XCFun DFT Library
   Mihaly Kallay                                 : mrcc  (arbitrary order and MRCC methods)
   Jiri Pittner, Ondrej Demel                    : Mk-CCSD
   Frank Weinhold                                : gennbo (NPA and NBO analysis)
   Christopher J. Cramer and Donald G. Truhlar   : smd solvation model


 Your calculation uses the libint2 library for the computation of 2-el integrals
 For citations please refer to: http://libint.valeyev.net

 This ORCA versions uses:
   CBLAS   interface :  Fast vector & matrix operations
   LAPACKE interface :  Fast linear algebra routines
   SCALAPACK package :  Parallel linear algebra routines




*****************************************
The coordinations will be read from file: guess.xyz
*****************************************



Information: The global flag for chemical shieldings has been found
             ==>> will calculate the chemical shifts for all atoms in the system

Your calculation utilizes the basis: cc-pVDZ 
       H, B-Ne : Obtained from the ccRepo (grant-hill.group.shef.ac.uk/ccrepo) Feb. 2017
                 T. H. Dunning, Jr., J. Chem. Phys. 90, 1007 (1989)
            He : Obtained from the ccRepo (grant-hill.group.shef.ac.uk/ccrepo) Feb. 2017
                 D. E. Woon, T. H. Dunning, Jr., J. Chem. Phys. 100, 2975 (1994)
  Li-Be, Na-Mg : Obtained from the ccRepo (grant-hill.group.shef.ac.uk/ccrepo) Feb. 2017
                 B. P. Prascher, D. E. Woon, K. A. Peterson, T. H. Dunning, Jr., A. K. Wilson, Theor. Chem. Acc. 128, 69 (2011)
         Al-Ar : Obtained from the ccRepo (grant-hill.group.shef.ac.uk/ccrepo) Feb. 2017
                 D. E. Woon, T. H. Dunning, Jr., J. Chem. Phys. 98, 1358 (1993)
            Ca : Obtained from the Peterson Research Group Website (tyr0.chem.wsu.edu/~kipeters) Feb. 2017
                 J. Koput, K. A. Peterson, J. Phys. Chem. 106, 9595 (2002)
         Sc-Zn : Obtained from the ccRepo (grant-hill.group.shef.ac.uk/ccrepo) Feb. 2017
                 N. B. Balabanov, K. A. Peterson, J. Chem. Phys. 123, 064107 (2005)
                 N. B. Balabanov, K. A. Peterson, J. Chem. Phys. 125, 074110 (2006)
         Ga-Kr : Obtained from the ccRepo (grant-hill.group.shef.ac.uk/ccrepo) Feb. 2017
                 A. K. Wilson, D. E. Woon, K. A. Peterson, T. H. Dunning, Jr., J. Chem. Phys. 110, 7667 (1999)

Your calculation utilizes the auxiliary basis: def2/J
   F. Weigend, Phys. Chem. Chem. Phys. 8, 1057 (2006).

================================================================================
                                        WARNINGS
                       Please study these warnings very carefully!
================================================================================

Warning: TCutStore was < 0. Adjusted to Thresh (uncritical)

INFO   : the flag for use of LIBINT has been found!

CheckInput: checking for shifts: .
================================================================================
                                       INPUT FILE
================================================================================
NAME = /home/jan/SoftwareDevelopment/karminus/output/olyp_ccpvdz/propionaldehyde/propionaldehyde.in
|  1> !cc-pvdz OLYP NMR
|  2> 
|  3> *xyzfile 0 1 guess.xyz
|  4> 
|  5> 
|  6>                          ****END OF INPUT****
================================================================================

                       ****************************
                       * Single Point Calculation *
                       ****************************

---------------------------------
CARTESIAN COORDINATES (ANGSTROEM)
---------------------------------
  C     -3.811030   -1.056290    2.125820
  C     -3.977940    0.289510    2.808070
  H     -4.190390   -1.855890    2.770210
  H     -2.764060   -1.275650    1.892610
  H     -4.375620   -1.086340    1.188230
  C     -3.017000    1.317570    2.269120
  H     -3.772650    0.182250    3.877670
  H     -5.000880    0.657050    2.677920
  O     -3.131300    2.516860    2.496330
  H     -2.132490    0.934810    1.731070

----------------------------
CARTESIAN COORDINATES (A.U.)
----------------------------
  NO LB      ZA    FRAG     MASS         X           Y           Z
   0 C     6.0000    0    12.011   -7.201803   -1.996099    4.017218
   1 C     6.0000    0    12.011   -7.517217    0.547095    5.306483
   2 H     1.0000    0     1.008   -7.918689   -3.507124    5.234938
   3 H     1.0000    0     1.008   -5.223316   -2.410629    3.576515
   4 H     1.0000    0     1.008   -8.268723   -2.052885    2.245429
   5 C     6.0000    0    12.011   -5.701304    2.489846    4.288015
   6 H     1.0000    0     1.008   -7.129275    0.344403    7.327734
   7 H     1.0000    0     1.008   -9.450294    1.241645    5.060535
   8 O     8.0000    0    15.999   -5.917299    4.756176    4.717380
   9 H     1.0000    0     1.008   -4.029822    1.766535    3.271248

--------------------------------
INTERNAL COORDINATES (ANGSTROEM)
--------------------------------
 C      0   0   0     0.000000000000     0.00000000     0.00000000
 C      1   0   0     1.518058513563     0.00000000     0.00000000
 H      1   2   0     1.094766021440   110.17392130     0.00000000
 H      1   2   3     1.094829618982   112.24076791   239.50077491
 H      1   2   3     1.094869799885   110.64009690   119.07662769
 C      2   1   3     1.506910796862   111.96034776   156.91102285
 H      2   1   3     1.094391544055   109.37379009    38.15949605
 H      2   1   3     1.094728695933   110.30074104   278.37707230
 O      6   2   1     1.225963041123   122.79597394   166.54811657
 H      6   2   1     1.103793893895   116.66461084   340.74022781

---------------------------
INTERNAL COORDINATES (A.U.)
---------------------------
 C      0   0   0     0.000000000000     0.00000000     0.00000000
 C      1   0   0     2.868714845901     0.00000000     0.00000000
 H      1   2   0     2.068807961245   110.17392130     0.00000000
 H      1   2   3     2.068928143181   112.24076791   239.50077491
 H      1   2   3     2.069004074084   110.64009690   119.07662769
 C      2   1   3     2.847648714319   111.96034776   156.91102285
 H      2   1   3     2.068100301544   109.37379009    38.15949605
 H      2   1   3     2.068737426259   110.30074104   278.37707230
 O      6   2   1     2.316734398032   122.79597394   166.54811657
 H      6   2   1     2.085868167756   116.66461084   340.74022781

---------------------
BASIS SET INFORMATION
---------------------
There are 3 groups of distinct atoms

 Group   1 Type C   : 17s4p1d contracted to 3s2p1d pattern {881/31/1}
 Group   2 Type H   : 4s1p contracted to 2s1p pattern {31/1}
 Group   3 Type O   : 17s4p1d contracted to 3s2p1d pattern {881/31/1}

Atom   0C    basis set group =>   1
Atom   1C    basis set group =>   1
Atom   2H    basis set group =>   2
Atom   3H    basis set group =>   2
Atom   4H    basis set group =>   2
Atom   5C    basis set group =>   1
Atom   6H    basis set group =>   2
Atom   7H    basis set group =>   2
Atom   8O    basis set group =>   3
Atom   9H    basis set group =>   2
-------------------------------
AUXILIARY BASIS SET INFORMATION
-------------------------------
There are 3 groups of distinct atoms

 Group   1 Type C   : 12s5p4d2f1g contracted to 6s4p3d1f1g pattern {711111/2111/211/2/1}
 Group   2 Type H   : 5s2p1d contracted to 3s1p1d pattern {311/2/1}
 Group   3 Type O   : 12s5p4d2f1g contracted to 6s4p3d1f1g pattern {711111/2111/211/2/1}

Atom   0C    basis set group =>   1
Atom   1C    basis set group =>   1
Atom   2H    basis set group =>   2
Atom   3H    basis set group =>   2
Atom   4H    basis set group =>   2
Atom   5C    basis set group =>   1
Atom   6H    basis set group =>   2
Atom   7H    basis set group =>   2
Atom   8O    basis set group =>   3
Atom   9H    basis set group =>   2
------------------------------------------------------------------------------
                           ORCA GTO INTEGRAL CALCULATION
                           -- RI-GTO INTEGRALS CHOSEN --
------------------------------------------------------------------------------

                         BASIS SET STATISTICS AND STARTUP INFO

Gaussian basis set:
 # of primitive gaussian shells          ...  118
 # of primitive gaussian functions       ...  178
 # of contracted shells                  ...   42
 # of contracted basis functions         ...   86
 Highest angular momentum                ...    2
 Maximum contraction depth               ...    8
Auxiliary gaussian basis set:
 # of primitive gaussian shells          ...  144
 # of primitive gaussian functions       ...  376
 # of contracted shells                  ...   90
 # of contracted aux-basis functions     ...  262
 Highest angular momentum                ...    4
 Maximum contraction depth               ...    7
Ratio of auxiliary to basis functions    ...  3.05
Integral package used                  ... LIBINT
 One Electron integrals                  ... done
 Ordering auxiliary basis shells         ... done
 Integral threshhold             Thresh  ...  1.000e-10
 Primitive cut-off               TCut    ...  1.000e-11
 Pre-screening matrix                    ... done
 Shell pair data                         ... 
 Ordering of the shell pairs             ... done (   0.000 sec) 901 of 903 pairs
 Determination of significant pairs      ... done (   0.000 sec)
 Creation of shell pair data             ... done (   0.001 sec)
 Storage of shell pair data              ... done (   0.000 sec)
 Shell pair data done in (   0.001 sec)
 Computing two index integrals           ... done
 Cholesky decomposition of the V-matrix  ... done


Timings:
 Total evaluation time                   ...   0.131 sec (  0.002 min)
 One electron matrix time                ...   0.007 sec (  0.000 min) =  5.2%
 Schwartz matrix evaluation time         ...   0.102 sec (  0.002 min) = 78.1%
 Two index repulsion integral time       ...   0.002 sec (  0.000 min) =  1.2%
 Cholesky decomposition of V             ...   0.001 sec (  0.000 min) =  0.6%
 Three index repulsion integral time     ...   0.000 sec (  0.000 min) =  0.0%

-------------------------------------------------------------------------------
                                 ORCA SCF
-------------------------------------------------------------------------------

------------
SCF SETTINGS
------------
Hamiltonian:
 Density Functional     Method          .... DFT(GTOs)
 Exchange Functional    Exchange        .... OPTX
 Correlation Functional Correlation     .... LYP
 Gradients option       PostSCFGGA      .... off
 RI-approximation to the Coulomb term is turned on
   Number of auxiliary basis functions  .... 262


General Settings:
 Integral files         IntName         .... /home/jan/SoftwareDevelopment/karminus/output/olyp_ccpvdz/propionaldehyde/propionaldehyde
 Hartree-Fock type      HFTyp           .... RHF
 Total Charge           Charge          ....    0
 Multiplicity           Mult            ....    1
 Number of Electrons    NEL             ....   32
 Basis Dimension        Dim             ....   86
 Nuclear Repulsion      ENuc            ....    116.1803133563 Eh

Convergence Acceleration:
 DIIS                   CNVDIIS         .... on
   Start iteration      DIISMaxIt       ....    12
   Startup error        DIISStart       ....  0.200000
   # of expansion vecs  DIISMaxEq       ....     5
   Bias factor          DIISBfac        ....   1.050
   Max. coefficient     DIISMaxC        ....  10.000
 Newton-Raphson         CNVNR           .... off
 SOSCF                  CNVSOSCF        .... on
   Start iteration      SOSCFMaxIt      ....   150
   Startup grad/error   SOSCFStart      ....  0.003300
 Level Shifting         CNVShift        .... on
   Level shift para.    LevelShift      ....    0.2500
   Turn off err/grad.   ShiftErr        ....    0.0010
 Zerner damping         CNVZerner       .... off
 Static damping         CNVDamp         .... on
   Fraction old density DampFac         ....    0.7000
   Max. Damping (<1)    DampMax         ....    0.9800
   Min. Damping (>=0)   DampMin         ....    0.0000
   Turn off err/grad.   DampErr         ....    0.1000
 Fernandez-Rico         CNVRico         .... off

SCF Procedure:
 Maximum # iterations   MaxIter         ....   125
 SCF integral mode      SCFMode         .... Direct
   Integral package                     .... LIBINT
 Reset frequeny         DirectResetFreq ....    20
 Integral Threshold     Thresh          ....  1.000e-10 Eh
 Primitive CutOff       TCut            ....  1.000e-11 Eh

Convergence Tolerance:
 Convergence Check Mode ConvCheckMode   .... Total+1el-Energy
 Convergence forced     ConvForced      .... 0
 Energy Change          TolE            ....  1.000e-06 Eh
 1-El. energy change                    ....  1.000e-03 Eh
 Orbital Gradient       TolG            ....  5.000e-05
 Orbital Rotation angle TolX            ....  5.000e-05
 DIIS Error             TolErr          ....  1.000e-06


Diagonalization of the overlap matrix:
Smallest eigenvalue                        ... 4.304e-03
Time for diagonalization                   ...    0.001 sec
Threshold for overlap eigenvalues          ... 1.000e-08
Number of eigenvalues below threshold      ... 0
Time for construction of square roots      ...    0.000 sec
Total time needed                          ...    0.001 sec

-------------------
DFT GRID GENERATION
-------------------

General Integration Accuracy     IntAcc      ...  4.340
Radial Grid Type                 RadialGrid  ... Gauss-Chebyshev
Angular Grid (max. acc.)         AngularGrid ... Lebedev-110
Angular grid pruning method      GridPruning ... 3 (G Style)
Weight generation scheme         WeightScheme... Becke
Basis function cutoff            BFCut       ...    1.0000e-10
Integration weight cutoff        WCut        ...    1.0000e-14
Grids for H and He will be reduced by one unit

# of grid points (after initial pruning)     ...  11448 (   0.0 sec)
# of grid points (after weights+screening)   ...  10925 (   0.0 sec)
nearest neighbour list constructed           ...    0.0 sec
Grid point re-assignment to atoms done       ...    0.0 sec
Grid point division into batches done        ...    0.0 sec
Reduced shell lists constructed in    0.2 sec

Total number of grid points                  ...    10925
Total number of batches                      ...      175
Average number of points per batch           ...       62
Average number of grid points per atom       ...     1092
Average number of shells per batch           ...    36.12 (86.00%)
Average number of basis functions per batch  ...    72.47 (84.27%)
Average number of large shells per batch     ...    30.29 (83.86%)
Average number of large basis fcns per batch ...    60.53 (83.52%)
Maximum spatial batch extension              ...  25.92, 22.36, 21.17 au
Average spatial batch extension              ...   4.45,  4.20,  4.38 au

Time for grid setup =    0.164 sec

------------------------------
INITIAL GUESS: MODEL POTENTIAL
------------------------------
Loading Hartree-Fock densities                     ... done
Calculating cut-offs                               ... done
Setting up the integral package                    ... done
Initializing the effective Hamiltonian             ... done
Starting the Coulomb interaction                   ... done (   0.1 sec)
Reading the grid                                   ... done
Mapping shells                                     ... done
Starting the XC term evaluation                    ... done (   0.2 sec)
  promolecular density results
     # of electrons  =     31.997040906
     EX              =    -25.344391349
     EC              =     -1.049498894
     EX+EC           =    -26.393890242
Transforming the Hamiltonian                       ... done (   0.0 sec)
Diagonalizing the Hamiltonian                      ... done (   0.0 sec)
Back transforming the eigenvectors                 ... done (   0.0 sec)
Now organizing SCF variables                       ... done
                      ------------------
                      INITIAL GUESS DONE (   0.5 sec)
                      ------------------
--------------
SCF ITERATIONS
--------------
ITER       Energy         Delta-E        Max-DP      RMS-DP      [F,P]     Damp
               ***  Starting incremental Fock matrix formation  ***
  0   -192.9367660336   0.000000000000 0.10087091  0.00412290  0.2341237 0.7000
  1   -193.0110369601  -0.074270926429 0.05223836  0.00263961  0.0742530 0.7000
                               ***Turning on DIIS***
  2   -193.0311992873  -0.020162327261 0.05535075  0.00365639  0.0295152 0.0000
  3   -193.0707512641  -0.039551976726 0.03509233  0.00187284  0.0480665 0.0000
  4   -193.0780740977  -0.007322833697 0.01558712  0.00065421  0.0346627 0.0000
  5   -193.0800201603  -0.001946062598 0.00439694  0.00021831  0.0041508 0.0000
                      *** Initiating the SOSCF procedure ***
                           *** Shutting down DIIS ***
                      *** Re-Reading the Fockian *** 
                      *** Removing any level shift *** 
ITER      Energy       Delta-E        Grad      Rot      Max-DP    RMS-DP
  6   -193.08009701  -0.0000768501  0.000356  0.000356  0.001228  0.000083
               *** Restarting incremental Fock matrix formation ***
  7   -193.08010537  -0.0000083616  0.000132  0.000453  0.001319  0.000054
  8   -193.08010553  -0.0000001578  0.000150  0.000194  0.000404  0.000014
  9   -193.08010605  -0.0000005194  0.000089  0.000295  0.000412  0.000018
 10   -193.08010584   0.0000002109  0.000182  0.000207  0.000322  0.000012
                 **** Energy Check signals convergence ****
              ***Rediagonalizing the Fockian in SOSCF/NRSCF***

               *****************************************************
               *                     SUCCESS                       *
               *           SCF CONVERGED AFTER  11 CYCLES          *
               *****************************************************

Setting up the final grid:

General Integration Accuracy     IntAcc      ...  4.670
Radial Grid Type                 RadialGrid  ... Gauss-Chebyshev
Angular Grid (max. acc.)         AngularGrid ... Lebedev-302
Angular grid pruning method      GridPruning ... 3 (G Style)
Weight generation scheme         WeightScheme... Becke
Basis function cutoff            BFCut       ...    1.0000e-10
Integration weight cutoff        WCut        ...    1.0000e-14
Grids for H and He will be reduced by one unit

# of grid points (after initial pruning)     ...  45212 (   0.0 sec)
# of grid points (after weights+screening)   ...  42609 (   0.0 sec)
nearest neighbour list constructed           ...    0.0 sec
Grid point re-assignment to atoms done       ...    0.0 sec
Grid point division into batches done        ...    0.1 sec
Reduced shell lists constructed in    0.7 sec

Total number of grid points                  ...    42609
Total number of batches                      ...      669
Average number of points per batch           ...       63
Average number of grid points per atom       ...     4261
Average number of shells per batch           ...    33.26 (79.20%)
Average number of basis functions per batch  ...    66.46 (77.28%)
Average number of large shells per batch     ...    27.20 (81.78%)
Average number of large basis fcns per batch ...    54.17 (81.51%)
Maximum spatial batch extension              ...  20.42, 20.07, 18.86 au
Average spatial batch extension              ...   2.88,  2.81,  2.83 au

Final grid set up in    0.7 sec
Final integration                            ... done (   0.6 sec)
Change in XC energy                          ...     0.000065745
Integrated number of electrons               ...    32.000019997
Previous integrated no of electrons          ...    31.999348515

----------------
TOTAL SCF ENERGY
----------------

Total Energy       :         -193.08004038 Eh           -5253.97501 eV

Components:
Nuclear Repulsion  :          116.18031336 Eh            3161.42705 eV
Electronic Energy  :         -309.26035373 Eh           -8415.40206 eV
One Electron Energy:         -490.96154162 Eh          -13359.74274 eV
Two Electron Energy:          181.70118789 Eh            4944.34069 eV

Virial components:
Potential Energy   :         -385.02282560 Eh          -10477.00373 eV
Kinetic Energy     :          191.94278522 Eh            5223.02872 eV
Virial Ratio       :            2.00592497


DFT components:
N(Alpha)           :       16.000009998708 electrons
N(Beta)            :       16.000009998708 electrons
N(Total)           :       32.000019997415 electrons
E(X)               :      -25.989305480943 Eh       
E(C)               :       -1.057462015415 Eh       
E(XC)              :      -27.046767496358 Eh       

---------------
SCF CONVERGENCE
---------------

  Last Energy change         ...   -2.8452e-07  Tolerance :   1.0000e-06
  Last MAX-Density change    ...    5.3474e-05  Tolerance :   1.0000e-05
  Last RMS-Density change    ...    3.0222e-06  Tolerance :   1.0000e-06
  Last Orbital Gradient      ...    7.8290e-06  Tolerance :   5.0000e-05
  Last Orbital Rotation      ...    2.3206e-05  Tolerance :   5.0000e-05

             **** THE GBW FILE WAS UPDATED (/home/jan/SoftwareDevelopment/karminus/output/olyp_ccpvdz/propionaldehyde/propionaldehyde.gbw) ****
             **** DENSITY FILE WAS UPDATED (/home/jan/SoftwareDevelopment/karminus/output/olyp_ccpvdz/propionaldehyde/propionaldehyde.scfp.tmp) ****
             **** ENERGY FILE WAS UPDATED (/home/jan/SoftwareDevelopment/karminus/output/olyp_ccpvdz/propionaldehyde/propionaldehyde.en.tmp) ****
----------------
ORBITAL ENERGIES
----------------

  NO   OCC          E(Eh)            E(eV) 
   0   2.0000     -18.764881      -510.6184 
   1   2.0000      -9.994172      -271.9553 
   2   2.0000      -9.925035      -270.0739 
   3   2.0000      -9.916536      -269.8427 
   4   2.0000      -0.949507       -25.8374 
   5   2.0000      -0.720770       -19.6131 
   6   2.0000      -0.592148       -16.1132 
   7   2.0000      -0.519417       -14.1340 
   8   2.0000      -0.420308       -11.4372 
   9   2.0000      -0.400480       -10.8976 
  10   2.0000      -0.388677       -10.5764 
  11   2.0000      -0.341662        -9.2971 
  12   2.0000      -0.330508        -8.9936 
  13   2.0000      -0.325457        -8.8561 
  14   2.0000      -0.298756        -8.1296 
  15   2.0000      -0.197059        -5.3623 
  16   0.0000      -0.060543        -1.6475 
  17   0.0000       0.040072         1.0904 
  18   0.0000       0.063745         1.7346 
  19   0.0000       0.078151         2.1266 
  20   0.0000       0.095030         2.5859 
  21   0.0000       0.116282         3.1642 
  22   0.0000       0.135760         3.6942 
  23   0.0000       0.195734         5.3262 
  24   0.0000       0.231714         6.3053 
  25   0.0000       0.245434         6.6786 
  26   0.0000       0.368414        10.0250 
  27   0.0000       0.410342        11.1660 
  28   0.0000       0.416626        11.3370 
  29   0.0000       0.469979        12.7888 
  30   0.0000       0.485233        13.2039 
  31   0.0000       0.537369        14.6226 
  32   0.0000       0.545093        14.8327 
  33   0.0000       0.575139        15.6503 
  34   0.0000       0.579841        15.7783 
  35   0.0000       0.591749        16.1023 
  36   0.0000       0.606803        16.5119 
  37   0.0000       0.621481        16.9113 
  38   0.0000       0.643954        17.5229 
  39   0.0000       0.650471        17.7002 
  40   0.0000       0.660169        17.9641 
  41   0.0000       0.767998        20.8983 
  42   0.0000       0.804034        21.8789 
  43   0.0000       0.841362        22.8946 
  44   0.0000       0.958172        26.0732 
  45   0.0000       1.020104        27.7584 
  46   0.0000       1.038017        28.2459 
  47   0.0000       1.064778        28.9741 
  48   0.0000       1.089718        29.6527 
  49   0.0000       1.154470        31.4147 
  50   0.0000       1.261527        34.3279 
  51   0.0000       1.325194        36.0604 
  52   0.0000       1.337612        36.3983 
  53   0.0000       1.366435        37.1826 
  54   0.0000       1.427670        38.8489 
  55   0.0000       1.476238        40.1705 
  56   0.0000       1.512865        41.1671 
  57   0.0000       1.563085        42.5337 
  58   0.0000       1.575069        42.8598 
  59   0.0000       1.593470        43.3605 
  60   0.0000       1.604154        43.6513 
  61   0.0000       1.616105        43.9765 
  62   0.0000       1.637566        44.5604 
  63   0.0000       1.678519        45.6748 
  64   0.0000       1.694776        46.1172 
  65   0.0000       1.704536        46.3828 
  66   0.0000       1.806824        49.1662 
  67   0.0000       1.847531        50.2739 
  68   0.0000       1.949574        53.0506 
  69   0.0000       1.966274        53.5050 
  70   0.0000       1.991402        54.1888 
  71   0.0000       2.078690        56.5640 
  72   0.0000       2.132277        58.0222 
  73   0.0000       2.187711        59.5307 
  74   0.0000       2.255770        61.3826 
  75   0.0000       2.331069        63.4316 
  76   0.0000       2.352863        64.0247 
  77   0.0000       2.418864        65.8206 
  78   0.0000       2.469114        67.1880 
  79   0.0000       2.492130        67.8143 
  80   0.0000       2.522917        68.6521 
  81   0.0000       2.609296        71.0026 
  82   0.0000       2.709143        73.7195 
  83   0.0000       2.966908        80.7337 
  84   0.0000       3.236248        88.0628 
  85   0.0000       3.329939        90.6123 

                    ********************************
                    * MULLIKEN POPULATION ANALYSIS *
                    ********************************

-----------------------
MULLIKEN ATOMIC CHARGES
-----------------------
   0 C :    0.006342
   1 C :   -0.030185
   2 H :    0.006026
   3 H :    0.012540
   4 H :    0.015962
   5 C :    0.169025
   6 H :    0.039971
   7 H :    0.024738
   8 O :   -0.208443
   9 H :   -0.035976
Sum of atomic charges:   -0.0000000

--------------------------------
MULLIKEN REDUCED ORBITAL CHARGES
--------------------------------
  0 C s       :     3.048224  s :     3.048224
      pz      :     0.970323  p :     2.903907
      px      :     0.971093
      py      :     0.962491
      dz2     :     0.008181  d :     0.041527
      dxz     :     0.005439
      dyz     :     0.010235
      dx2y2   :     0.009506
      dxy     :     0.008165
  1 C s       :     3.104352  s :     3.104352
      pz      :     0.969541  p :     2.866301
      px      :     0.963109
      py      :     0.933650
      dz2     :     0.012838  d :     0.059532
      dxz     :     0.005695
      dyz     :     0.011547
      dx2y2   :     0.013103
      dxy     :     0.016348
  2 H s       :     0.962046  s :     0.962046
      pz      :     0.010616  p :     0.031928
      px      :     0.008487
      py      :     0.012825
  3 H s       :     0.955474  s :     0.955474
      pz      :     0.007537  p :     0.031986
      px      :     0.017769
      py      :     0.006681
  4 H s       :     0.952217  s :     0.952217
      pz      :     0.015778  p :     0.031821
      px      :     0.010138
      py      :     0.005905
  5 C s       :     3.147909  s :     3.147909
      pz      :     0.808687  p :     2.539875
      px      :     0.886605
      py      :     0.844583
      dz2     :     0.010277  d :     0.143190
      dxz     :     0.006146
      dyz     :     0.037340
      dx2y2   :     0.034345
      dxy     :     0.055082
  6 H s       :     0.927809  s :     0.927809
      pz      :     0.018821  p :     0.032220
      px      :     0.007083
      py      :     0.006315
  7 H s       :     0.943926  s :     0.943926
      pz      :     0.006509  p :     0.031336
      px      :     0.017649
      py      :     0.007178
  8 O s       :     3.783400  s :     3.783400
      pz      :     1.384947  p :     4.407684
      px      :     1.648314
      py      :     1.374423
      dz2     :     0.002073  d :     0.017360
      dxz     :     0.000212
      dyz     :     0.005084
      dx2y2   :     0.005703
      dxy     :     0.004287
  9 H s       :     1.006944  s :     1.006944
      pz      :     0.008009  p :     0.029032
      px      :     0.015375
      py      :     0.005648


                     *******************************
                     * LOEWDIN POPULATION ANALYSIS *
                     *******************************

----------------------
LOEWDIN ATOMIC CHARGES
----------------------
   0 C :   -0.057036
   1 C :   -0.069833
   2 H :    0.027114
   3 H :    0.022094
   4 H :    0.026216
   5 C :   -0.014365
   6 H :    0.047564
   7 H :    0.039475
   8 O :   -0.005759
   9 H :   -0.015470

-------------------------------
LOEWDIN REDUCED ORBITAL CHARGES
-------------------------------
  0 C s       :     2.804204  s :     2.804204
      pz      :     1.044509  p :     3.106830
      px      :     1.050094
      py      :     1.012228
      dz2     :     0.025279  d :     0.146002
      dxz     :     0.025105
      dyz     :     0.035072
      dx2y2   :     0.038814
      dxy     :     0.021731
  1 C s       :     2.811944  s :     2.811944
      pz      :     1.031556  p :     3.074358
      px      :     1.036520
      py      :     1.006282
      dz2     :     0.046786  d :     0.183531
      dxz     :     0.015431
      dyz     :     0.033077
      dx2y2   :     0.040516
      dxy     :     0.047721
  2 H s       :     0.892455  s :     0.892455
      pz      :     0.026943  p :     0.080431
      px      :     0.020222
      py      :     0.033267
  3 H s       :     0.896563  s :     0.896563
      pz      :     0.018256  p :     0.081343
      px      :     0.045008
      py      :     0.018080
  4 H s       :     0.893532  s :     0.893532
      pz      :     0.038836  p :     0.080252
      px      :     0.024500
      py      :     0.016916
  5 C s       :     2.889550  s :     2.889550
      pz      :     0.817782  p :     2.753946
      px      :     0.946939
      py      :     0.989225
      dz2     :     0.026596  d :     0.370869
      dxz     :     0.019273
      dyz     :     0.088001
      dx2y2   :     0.092878
      dxy     :     0.144120
  6 H s       :     0.869496  s :     0.869496
      pz      :     0.047079  p :     0.082939
      px      :     0.018187
      py      :     0.017673
  7 H s       :     0.878713  s :     0.878713
      pz      :     0.016721  p :     0.081813
      px      :     0.044979
      py      :     0.020112
  8 O s       :     3.517323  s :     3.517323
      pz      :     1.367663  p :     4.458265
      px      :     1.616956
      py      :     1.473646
      dz2     :     0.003994  d :     0.030171
      dxz     :     0.000346
      dyz     :     0.007151
      dx2y2   :     0.011863
      dxy     :     0.006818
  9 H s       :     0.934407  s :     0.934407
      pz      :     0.022466  p :     0.081063
      px      :     0.042289
      py      :     0.016308


                      *****************************
                      * MAYER POPULATION ANALYSIS *
                      *****************************

  NA   - Mulliken gross atomic population
  ZA   - Total nuclear charge
  QA   - Mulliken gross atomic charge
  VA   - Mayer's total valence
  BVA  - Mayer's bonded valence
  FA   - Mayer's free valence

  ATOM       NA         ZA         QA         VA         BVA        FA
  0 C      5.9937     6.0000     0.0063     4.0109     4.0109    -0.0000
  1 C      6.0302     6.0000    -0.0302     3.9873     3.9873     0.0000
  2 H      0.9940     1.0000     0.0060     0.9772     0.9772    -0.0000
  3 H      0.9875     1.0000     0.0125     0.9851     0.9851    -0.0000
  4 H      0.9840     1.0000     0.0160     0.9716     0.9716     0.0000
  5 C      5.8310     6.0000     0.1690     4.1576     4.1576    -0.0000
  6 H      0.9600     1.0000     0.0400     0.9773     0.9773    -0.0000
  7 H      0.9753     1.0000     0.0247     0.9889     0.9889     0.0000
  8 O      8.2084     8.0000    -0.2084     2.3042     2.3042     0.0000
  9 H      1.0360     1.0000    -0.0360     0.9720     0.9720     0.0000

  Mayer bond orders larger than 0.1
B(  0-C ,  1-C ) :   1.0834 B(  0-C ,  2-H ) :   0.9643 B(  0-C ,  3-H ) :   0.9656 
B(  0-C ,  4-H ) :   0.9710 B(  1-C ,  5-C ) :   1.0086 B(  1-C ,  6-H ) :   0.9242 
B(  1-C ,  7-H ) :   0.9351 B(  5-C ,  8-O ) :   2.1806 B(  5-C ,  9-H ) :   0.9136 


-------
TIMINGS
-------

Total SCF time: 0 days 0 hours 0 min 6 sec 

Total time                  ....       6.033 sec
Sum of individual times     ....       6.023 sec  ( 99.8%)

Fock matrix formation       ....       4.761 sec  ( 78.9%)
  Split-RI-J                ....       2.138 sec  ( 44.9% of F)
  XC integration            ....       2.617 sec  ( 55.0% of F)
    Basis function eval.    ....       1.883 sec  ( 72.0% of XC)
    Density eval.           ....       0.231 sec  (  8.8% of XC)
    XC-Functional eval.     ....       0.072 sec  (  2.8% of XC)
    XC-Potential eval.      ....       0.396 sec  ( 15.1% of XC)
Diagonalization             ....       0.008 sec  (  0.1%)
Density matrix formation    ....       0.001 sec  (  0.0%)
Population analysis         ....       0.002 sec  (  0.0%)
Initial guess               ....       0.350 sec  (  5.8%)
Orbital Transformation      ....       0.000 sec  (  0.0%)
Orbital Orthonormalization  ....       0.000 sec  (  0.0%)
DIIS solution               ....       0.002 sec  (  0.0%)
SOSCF solution              ....       0.003 sec  (  0.1%)
Grid generation             ....       0.896 sec  ( 14.9%)

-------------------------   --------------------
FINAL SINGLE POINT ENERGY      -193.080040377948
-------------------------   --------------------


                            ***************************************
                            *     ORCA property calculations      *
                            ***************************************

                                    ---------------------
                                    Active property flags
                                    ---------------------
   (+) Dipole Moment
   (+) Chemical Shifts


------------------------------------------------------------------------------
                       ORCA ELECTRIC PROPERTIES CALCULATION
------------------------------------------------------------------------------

Dipole Moment Calculation                       ... on
Quadrupole Moment Calculation                   ... off
Polarizability Calculation                      ... off
GBWName                                         ... /home/jan/SoftwareDevelopment/karminus/output/olyp_ccpvdz/propionaldehyde/propionaldehyde.gbw
Electron density file                           ... /home/jan/SoftwareDevelopment/karminus/output/olyp_ccpvdz/propionaldehyde/propionaldehyde.scfp.tmp

-------------
DIPOLE MOMENT
-------------
                                X             Y             Z
Electronic contribution:      1.15103       5.61577       0.35176
Nuclear contribution   :     -1.24924      -6.57187      -0.37223
                        -----------------------------------------
Total Dipole Moment    :     -0.09821      -0.95610      -0.02047
                        -----------------------------------------
Magnitude (a.u.)       :      0.96135
Magnitude (Debye)      :      2.44355

------------------------------------------------------------------------------
                                ORCA EPR/NMR CALCULATION
------------------------------------------------------------------------------

GBWName                      ... /home/jan/SoftwareDevelopment/karminus/output/olyp_ccpvdz/propionaldehyde/propionaldehyde.gbw
Electron density file        ... /home/jan/SoftwareDevelopment/karminus/output/olyp_ccpvdz/propionaldehyde/propionaldehyde.scfp.tmp
Spin density file            ... /home/jan/SoftwareDevelopment/karminus/output/olyp_ccpvdz/propionaldehyde/propionaldehyde.scfr.tmp
Treatment of gauge           ... GIAO (approximations 1/2el = 0,3)
Details of the CP(SCF) procedure:
       Solver   = POPLE   
       MaxIter  =    64   
       Tolerance=    1.000e-06
       Op-0     =   0- 15 =>  16- 85
Multiplicity                 ... 1
g-tensor                     ... 0
NMR chemical shifts          ... 1
Number of nuclei for epr/nmr ... 10
   Nucleus:   0C 
       Hyperfine : Isotope=   13 I=   0.500 P= 134.188
       Quadrupole: Isotope=   13 I=   0.500 Q=   0.000
       Spin-Orbit: Zeff=   3.600
       rho(0)=N f(grad)=N a(iso)=N a(dip)=N a(orb)=N sigma(nmr)=Y
   Nucleus:   1C 
       Hyperfine : Isotope=   13 I=   0.500 P= 134.188
       Quadrupole: Isotope=   13 I=   0.500 Q=   0.000
       Spin-Orbit: Zeff=   3.600
       rho(0)=N f(grad)=N a(iso)=N a(dip)=N a(orb)=N sigma(nmr)=Y
   Nucleus:   2H 
       Hyperfine : Isotope=    1 I=   0.500 P= 533.552
       Quadrupole: Isotope=    2 I=   1.000 Q=   0.003
       Spin-Orbit: Zeff=   1.000
       rho(0)=N f(grad)=N a(iso)=N a(dip)=N a(orb)=N sigma(nmr)=Y
   Nucleus:   3H 
       Hyperfine : Isotope=    1 I=   0.500 P= 533.552
       Quadrupole: Isotope=    2 I=   1.000 Q=   0.003
       Spin-Orbit: Zeff=   1.000
       rho(0)=N f(grad)=N a(iso)=N a(dip)=N a(orb)=N sigma(nmr)=Y
   Nucleus:   4H 
       Hyperfine : Isotope=    1 I=   0.500 P= 533.552
       Quadrupole: Isotope=    2 I=   1.000 Q=   0.003
       Spin-Orbit: Zeff=   1.000
       rho(0)=N f(grad)=N a(iso)=N a(dip)=N a(orb)=N sigma(nmr)=Y
   Nucleus:   5C 
       Hyperfine : Isotope=   13 I=   0.500 P= 134.188
       Quadrupole: Isotope=   13 I=   0.500 Q=   0.000
       Spin-Orbit: Zeff=   3.600
       rho(0)=N f(grad)=N a(iso)=N a(dip)=N a(orb)=N sigma(nmr)=Y
   Nucleus:   6H 
       Hyperfine : Isotope=    1 I=   0.500 P= 533.552
       Quadrupole: Isotope=    2 I=   1.000 Q=   0.003
       Spin-Orbit: Zeff=   1.000
       rho(0)=N f(grad)=N a(iso)=N a(dip)=N a(orb)=N sigma(nmr)=Y
   Nucleus:   7H 
       Hyperfine : Isotope=    1 I=   0.500 P= 533.552
       Quadrupole: Isotope=    2 I=   1.000 Q=   0.003
       Spin-Orbit: Zeff=   1.000
       rho(0)=N f(grad)=N a(iso)=N a(dip)=N a(orb)=N sigma(nmr)=Y
   Nucleus:   8O 
       Hyperfine : Isotope=   17 I=   2.500 P= -72.357
       Quadrupole: Isotope=   17 I=   2.500 Q=  -0.026
       Spin-Orbit: Zeff=   5.600
       rho(0)=N f(grad)=N a(iso)=N a(dip)=N a(orb)=N sigma(nmr)=Y
   Nucleus:   9H 
       Hyperfine : Isotope=    1 I=   0.500 P= 533.552
       Quadrupole: Isotope=    2 I=   1.000 Q=   0.003
       Spin-Orbit: Zeff=   1.000
       rho(0)=N f(grad)=N a(iso)=N a(dip)=N a(orb)=N sigma(nmr)=Y
Using LibInt in CPSCF-CP

Forming RHS of the CP-SCF equations         ... 
Calculating right hand sides for GIAO treatment (new)  ... 
  Entering RightHandSide GIAO. ScalHFX=    0.0000 NeedHFX=0
     -> 1-electron GIAO integrals will be done analytically
     -> RI used in SCF and no Fock exchange. RIJK enforced by the user
     Making grid for GIAO integrations   ... done
     Test of existence of the V matrix   = 1
     Test of existence of the VCD matrix = 1
     Test of existence of the VO matrix  = 0
     Warning: RI is turned on for GIAO but the V matrix or its Cholesky decomposition are not found - making it
     Calculating V           ... done
     Cholesky decomposition  ... done
     Storing V and VCD       ... done
     Cholesky decomposition-2... done
     Storing VO              ... done
  Getting the pre-screening matrix        ... done
  Extracting occupied and virtual blocks  ... 
  Operator  0  NO=  16 NV=  70 
  One-electron GIAO integrals             ...   done
  Transforming and RHS contribution       ...   done
  Calculating F[B](P)                     ...  (RI-JK)
---------------------
RI-GIAO-TRANSFORMATION (AUX index driven)
----------------------

Dimension of the orbital-basis         ... 86
Dimension of the aux-basis             ... 262
Number of (i,a) MOs                    ... 16,70
Number of ij,ia,ab pairs               ... 256,1120,4900
Transformation of internal MOs         ...    0-  15
Transformation of internal/external MOs...    0-  15 to   16-  85

Mapping shells                                 ... done
Making shell addresses                         ... done
Figuring out significant basis function pairs  ... done
  N(Pairs)         ... 3741
  N(Strong pairs)  ... 3707
  Mem-Available    ... 1024 MB
  (p,q) per batch  ... 64031
  N(Batches)       ... 1
Preparing matrix containers                    ... done
Preparing AO buffer                            ... done
Calculating AO integrals and transforming AUX  ... done
Finished RI-GIAO integral generation and aux-index transformation in  1.037 sec
Mapping the MO pairs                            ... done
Getting memory                                  ... done
Second Phase: sorting and transformation of MO indices
Memory available                       ... 1024 MB 
Max. # Aux fcns treated in a batch     ... 262    
Initializing the MO transformation process      ... done
Batch   0: Q=   0 ...  261
   Reading      ... done
   Transforming ... done
Finished transformation of the MO indices in  0.185 sec
Initializing the sorting process                ... done

IJ-Resorting
# of internal pairs                    ... 256
# batches for internal pairs           ... 1
   (0) Reading      ... done
   (0) Writing      ... done
   (1) Reading      ... done
   (1) Writing      ... done
   (2) Reading      ... done
   (2) Writing      ... done
   (3) Reading      ... done
   (3) Writing      ... done
(ij|v) resorting done in     0.005 sec

IA-Resorting
# of internal orbitals                 ... 16
# batches for internal orbitals        ... 1
   (0) Reading      ... done
   (0) Writing      ... done
   (1) Reading      ... done
   (1) Writing      ... done
   (2) Reading      ... done
   (2) Writing      ... done
   (3) Reading      ... done
   (3) Writing      ... done
(ia|v) resorting done in     0.010 sec

  Resorting completed in     0.015 sec
RI-GIAO-Integral transformation completed in     1.283 sec
Reading RI-integrals ... done
Doing RI-JK          ... done
 => dG/dB done
  RI-JK GIAO contributions                ...   done
  DFT XC-terms                            ... done
  Transforming to MO basis/RHS contribs.  ... done
  GIAO profiling information: 
    Total GIAO time               ...       2.4 sec
       Grid setup                 ...       0.2 sec (  6.8%)
       RI-V-matrix setup          ...       0.0 sec (  1.5%)
       GIAO 1-electron integrals  ...       0.0 sec (  1.0%)
       GIAO RI-JK                 ...       0.4 sec ( 18.2%)
       GIAO RI integral trafo     ...       1.3 sec ( 53.8%)
       GIAO XC-terms              ...       0.4 sec ( 18.6%)

  GIAO right hand side done


Forming final perturbed densities           ... done
Transforming perturbed density to AO basis  ...  done

Magnetic field perturbation calculated in  2.456 sec

---------------
CHEMICAL SHIFTS
---------------

Note: using conversion factor for au to ppm alpha^2/2 =   26.625677252 
Doing GIAO para- and diamagnetic shielding integrals analytically     ...done
Doing remaining GIAO terms numerically                                ...done
 --------------
 Nucleus   0C :
 --------------

Diamagnetic contribution to the shielding tensor (ppm) : 
           244.283          0.612        -0.487
             6.959        251.907        -2.698
             5.446          5.571       242.138

Paramagnetic contribution to the shielding tensor (ppm): 
           -63.881          1.343        -0.225
            -8.988        -63.669         9.935
            -8.747          2.614       -63.289

Total shielding tensor (ppm): 
           180.403          1.955        -0.712
            -2.030        188.238         7.236
            -3.301          8.185       178.849


 Diagonalized sT*s matrix:
 
 sDSO           243.412          245.036          249.881  iso=     246.109
 sPSO           -69.370          -64.243          -57.225  iso=     -63.613
        ---------------  ---------------  ---------------
 Total          174.041          180.793          192.656  iso=     182.497

 --------------
 Nucleus   1C :
 --------------

Diamagnetic contribution to the shielding tensor (ppm) : 
           245.374          1.767         2.641
            -6.876        256.890         5.835
             4.656          0.100       245.776

Paramagnetic contribution to the shielding tensor (ppm): 
           -84.426         11.013        -7.659
            25.471        -98.555        -9.096
            -8.191         -5.904       -95.738

Total shielding tensor (ppm): 
           160.948         12.780        -5.018
            18.594        158.335        -3.261
            -3.535         -5.804       150.038


 Diagonalized sT*s matrix:
 
 sDSO           254.339          247.816          245.884  iso=     249.347
 sPSO          -110.476          -99.182          -69.061  iso=     -92.906
        ---------------  ---------------  ---------------
 Total          143.863          148.634          176.824  iso=     156.440

 --------------
 Nucleus   2H :
 --------------

Diamagnetic contribution to the shielding tensor (ppm) : 
            21.571          4.197        -5.734
            15.139         32.535       -10.137
            -7.697         -4.502        22.607

Paramagnetic contribution to the shielding tensor (ppm): 
             5.998         -2.339         4.120
           -13.574          1.385         7.557
             6.147          2.374         6.963

Total shielding tensor (ppm): 
            27.569          1.858        -1.614
             1.564         33.920        -2.581
            -1.549         -2.128        29.571


 Diagonalized sT*s matrix:
 
 sDSO            15.844           19.578           41.291  iso=      25.571
 sPSO            10.828            9.247           -5.729  iso=       4.782
        ---------------  ---------------  ---------------
 Total           26.672           28.825           35.563  iso=      30.353

 --------------
 Nucleus   3H :
 --------------

Diamagnetic contribution to the shielding tensor (ppm) : 
            37.457         -4.531         2.138
             0.514         36.523        -1.492
             0.611          1.846        33.141

Paramagnetic contribution to the shielding tensor (ppm): 
            -3.315          2.839        -3.745
            -3.381         -8.337         2.614
            -2.837         -1.349        -5.115

Total shielding tensor (ppm): 
            34.142         -1.692        -1.607
            -2.868         28.186         1.121
            -2.225          0.498        28.025


 Diagonalized sT*s matrix:
 
 sDSO            34.629           34.945           37.546  iso=      35.707
 sPSO            -7.345           -7.366           -2.056  iso=      -5.589
        ---------------  ---------------  ---------------
 Total           27.284           27.579           35.490  iso=      30.118

 --------------
 Nucleus   4H :
 --------------

Diamagnetic contribution to the shielding tensor (ppm) : 
            33.985          2.546         1.925
             2.705         29.569        -0.035
            15.986          4.627        28.811

Paramagnetic contribution to the shielding tensor (ppm): 
            -4.467         -2.103         1.642
            -2.943         -1.149         2.541
           -12.312         -2.502         4.833

Total shielding tensor (ppm): 
            29.517          0.443         3.566
            -0.238         28.420         2.506
             3.674          2.124        33.644


 Diagonalized sT*s matrix:
 
 sDSO            25.985           27.834           38.545  iso=      30.788
 sPSO             0.593            0.877           -2.253  iso=      -0.261
        ---------------  ---------------  ---------------
 Total           26.578           28.711           36.292  iso=      30.527

 --------------
 Nucleus   5C :
 --------------

Diamagnetic contribution to the shielding tensor (ppm) : 
           247.921          5.044        -6.097
             0.077        264.579         5.911
           -12.188          2.211       244.394

Paramagnetic contribution to the shielding tensor (ppm): 
          -288.855         -1.510        82.577
             9.030       -284.109       -20.550
            88.053        -16.864      -204.736

Total shielding tensor (ppm): 
           -40.934          3.534        76.480
             9.107        -19.530       -14.639
            75.865        -14.653        39.659


 Diagonalized sT*s matrix:
 
 sDSO           264.966          236.201          255.728  iso=     252.298
 sPSO          -282.872         -151.111         -343.717  iso=    -259.233
        ---------------  ---------------  ---------------
 Total          -17.906           85.090          -87.990  iso=      -6.935

 --------------
 Nucleus   6H :
 --------------

Diamagnetic contribution to the shielding tensor (ppm) : 
            15.479          2.144         1.020
            -0.712         23.564        -0.758
           -11.884          0.698        38.311

Paramagnetic contribution to the shielding tensor (ppm): 
            10.126         -2.358        -0.439
             0.756          5.704         2.405
            12.078          0.365        -4.853

Total shielding tensor (ppm): 
            25.605         -0.214         0.581
             0.044         29.269         1.647
             0.194          1.062        33.459


 Diagonalized sT*s matrix:
 
 sDSO            16.192           24.430           36.733  iso=      25.785
 sPSO             9.387            4.450           -2.860  iso=       3.659
        ---------------  ---------------  ---------------
 Total           25.580           28.880           33.873  iso=      29.444

 --------------
 Nucleus   7H :
 --------------

Diamagnetic contribution to the shielding tensor (ppm) : 
            37.137         -3.919        -7.715
           -10.000         20.818         2.768
            -1.849         -2.093        12.868

Paramagnetic contribution to the shielding tensor (ppm): 
            -5.779          0.823         7.866
             8.709          9.112        -1.504
             2.629          3.869        13.901

Total shielding tensor (ppm): 
            31.358         -3.096         0.151
            -1.291         29.930         1.264
             0.780          1.776        26.770


 Diagonalized sT*s matrix:
 
 sDSO            16.233           16.490           38.100  iso=      23.608
 sPSO             9.598           12.740           -5.104  iso=       5.745
        ---------------  ---------------  ---------------
 Total           25.831           29.230           32.996  iso=      29.352

 --------------
 Nucleus   8O :
 --------------

Diamagnetic contribution to the shielding tensor (ppm) : 
           379.553         -1.567       -14.421
            -5.816        420.652        12.980
           -14.162          7.940       370.699

Paramagnetic contribution to the shielding tensor (ppm): 
          -602.767         -9.753       351.826
            41.818      -1383.475      -178.112
           350.617       -145.006      -258.150

Total shielding tensor (ppm): 
          -223.214        -11.321       337.405
            36.003       -962.822      -165.132
           336.455       -137.066       112.549


 Diagonalized sT*s matrix:
 
 sDSO           359.545          387.846          423.513  iso=     390.301
 sPSO           -27.826         -804.537        -1412.029  iso=    -748.130
        ---------------  ---------------  ---------------
 Total          331.720         -416.691         -988.516  iso=    -357.829

 --------------
 Nucleus   9H :
 --------------

Diamagnetic contribution to the shielding tensor (ppm) : 
            40.195         -2.960         2.454
            -5.696         34.302         4.573
             0.183          1.427        42.089

Paramagnetic contribution to the shielding tensor (ppm): 
           -18.092          6.658        -2.819
             6.028        -13.728        -4.598
            -0.505         -3.326       -21.156

Total shielding tensor (ppm): 
            22.104          3.698        -0.364
             0.331         20.574        -0.025
            -0.322         -1.898        20.933


 Diagonalized sT*s matrix:
 
 sDSO            41.430           42.499           32.658  iso=      38.862
 sPSO           -22.434          -21.619           -8.923  iso=     -17.659
        ---------------  ---------------  ---------------
 Total           18.996           20.880           23.736  iso=      21.204



--------------------------
CHEMICAL SHIELDING SUMMARY (ppm)
--------------------------


  Nucleus  Element    Isotropic     Anisotropy
  -------  -------  ------------   ------------
      0       C          182.497         15.239 
      1       C          156.440         30.575 
      2       H           30.353          7.814 
      3       H           30.118          8.059 
      4       H           30.527          8.647 
      5       C           -6.935       -121.582 
      6       H           29.444          6.643 
      7       H           29.352          5.465 
      8       O         -357.829       -946.030 
      9       H           21.204          3.798 



Timings for individual modules:

Sum of individual times         ...       14.978 sec (=   0.250 min)
GTO integral calculation        ...        0.145 sec (=   0.002 min)   1.0 %
SCF iterations                  ...        6.042 sec (=   0.101 min)  40.3 %
SCF-level EPR/NMR calculation   ...        8.791 sec (=   0.147 min)  58.7 %
                             ****ORCA TERMINATED NORMALLY****
TOTAL RUN TIME: 0 days 0 hours 0 minutes 15 seconds 68 msec
