
                                 *****************
                                 * O   R   C   A *
                                 *****************

           --- An Ab Initio, DFT and Semiempirical electronic structure package ---

                  #######################################################
                  #                        -***-                        #
                  #  Department of molecular theory and spectroscopy    #
                  #              Directorship: Frank Neese              #
                  # Max Planck Institute for Chemical Energy Conversion #
                  #                  D-45470 Muelheim/Ruhr              #
                  #                       Germany                       #
                  #                                                     #
                  #                  All rights reserved                #
                  #                        -***-                        #
                  #######################################################


                         Program Version 4.0.0.2 - RELEASE -


 With contributions from (in alphabetic order):
   Daniel Aravena         : Magnetic Properties
   Michael Atanasov       : Ab Initio Ligand Field Theory
   Ute Becker             : Parallelization
   Martin Brehm           : Molecular dynamics
   Dmytro Bykov           : SCF Hessian
   Vijay G. Chilkuri      : MRCI spin determinant printing
   Dipayan Datta          : RHF DLPNO-CCSD density
   Achintya Kumar Dutta   : EOM-CC, STEOM-CC
   Dmitry Ganyushin       : Spin-Orbit,Spin-Spin,Magnetic field MRCI
   Yang Guo               : DLPNO-NEVPT2, CIM, IAO-localization
   Andreas Hansen         : Spin unrestricted coupled pair/coupled cluster methods
   Lee Huntington         : MR-EOM, pCC
   Robert Izsak           : Overlap fitted RIJCOSX, COSX-SCS-MP3, EOM
   Christian Kollmar      : KDIIS, OOCD, Brueckner-CCSD(T), CCSD density
   Simone Kossmann        : Meta GGA functionals, TD-DFT gradient, OOMP2, MP2 Hessian
   Martin Krupicka        : AUTO-CI
   Dagmar Lenk            : GEPOL surface
   Dimitrios Liakos       : Extrapolation schemes; parallel MDCI
   Dimitrios Manganas     : ROCIS; embedding schemes
   Dimitrios Pantazis     : SARC Basis sets
   Taras Petrenko         : DFT Hessian,TD-DFT gradient, ASA, ECA, R-Raman, ABS, FL, XAS/XES, NRVS
   Peter Pinski           : DLPNO-MP2
   Christoph Reimann      : Effective Core Potentials
   Marius Retegan         : Local ZFS, SOC
   Christoph Riplinger    : Optimizer, TS searches, QM/MM, DLPNO-CCSD(T), (RO)-DLPNO pert. Triples
   Tobias Risthaus        : Range-separated hybrids, TD-DFT gradient, RPA, STAB
   Michael Roemelt        : Restricted open shell CIS
   Masaaki Saitow         : Open-shell DLPNO
   Barbara Sandhoefer     : DKH picture change effects
   Kantharuban Sivalingam : CASSCF convergence, NEVPT2, FIC-MRCI
   Georgi Stoychev        : AutoAux
   Boris Wezisla          : Elementary symmetry handling
   Frank Wennmohs         : Technical directorship


 We gratefully acknowledge several colleagues who have allowed us to
 interface, adapt or use parts of their codes:
   Stefan Grimme, W. Hujo, H. Kruse,             : VdW corrections, initial TS optimization,
                  C. Bannwarth                     DFT functionals, gCP, sTDA/sTD-DF
   Ed Valeev                                     : LibInt (2-el integral package), F12 methods
   Garnet Chan, S. Sharma, J. Yang, R. Olivares  : DMRG
   Ulf Ekstrom                                   : XCFun DFT Library
   Mihaly Kallay                                 : mrcc  (arbitrary order and MRCC methods)
   Jiri Pittner, Ondrej Demel                    : Mk-CCSD
   Frank Weinhold                                : gennbo (NPA and NBO analysis)
   Christopher J. Cramer and Donald G. Truhlar   : smd solvation model


 Your calculation uses the libint2 library for the computation of 2-el integrals
 For citations please refer to: http://libint.valeyev.net

 This ORCA versions uses:
   CBLAS   interface :  Fast vector & matrix operations
   LAPACKE interface :  Fast linear algebra routines
   SCALAPACK package :  Parallel linear algebra routines




*****************************************
The coordinations will be read from file: guess.xyz
*****************************************



Information: The global flag for chemical shieldings has been found
             ==>> will calculate the chemical shifts for all atoms in the system

Your calculation utilizes the basis: aug-cc-pVDZ 
    H, B-Ne : Obtained from the ccRepo (grant-hill.group.shef.ac.uk/ccrepo) Feb. 2017
              R. A. Kendall, T. H. Dunning, Jr., R. J. Harrison, J. Chem. Phys. 96, 6796 (1992)
         He : Obtained from the ccRepo (grant-hill.group.shef.ac.uk/ccrepo) Feb. 2017
              D. E. Woon, T. H. Dunning, Jr., J. Chem. Phys. 100, 2975 (1994)
  Li-Be, Na : Obtained from the ccRepo (grant-hill.group.shef.ac.uk/ccrepo) Feb. 2017
              B. P. Prascher, D. E. Woon, K. A. Peterson, T. H. Dunning, Jr., A. K. Wilson, Theor. Chem. Acc. 128, 69 (2011)
         Mg : Obtained from the Peterson Research Group Website (tyr0.chem.wsu.edu/~kipeters) Feb. 2017
              B. P. Prascher, D. E. Woon, K. A. Peterson, T. H. Dunning, Jr., A. K. Wilson, Theor. Chem. Acc. 128, 69 (2011)
      Al-Ar : Obtained from the ccRepo (grant-hill.group.shef.ac.uk/ccrepo) Feb. 2017
              D. E. Woon, T. H. Dunning, Jr., J. Chem. Phys. 98, 1358 (1993)
      Sc-Zn : Obtained from the ccRepo (grant-hill.group.shef.ac.uk/ccrepo) Feb. 2017
              N. B. Balabanov, K. A. Peterson, J. Chem. Phys. 123, 064107 (2005)
              N. B. Balabanov, K. A. Peterson, J. Chem. Phys. 125, 074110 (2006)
      Ga-Kr : Obtained from the ccRepo (grant-hill.group.shef.ac.uk/ccrepo) Feb. 2017
              A. K. Wilson, D. E. Woon, K. A. Peterson, T. H. Dunning, Jr., J. Chem. Phys. 110, 7667 (1999)

================================================================================
                                        WARNINGS
                       Please study these warnings very carefully!
================================================================================

Warning: TCutStore was < 0. Adjusted to Thresh (uncritical)

INFO   : the flag for use of LIBINT has been found!

CheckInput: checking for shifts: .

Warning: GIAO NMR calculation needs an auxiliary basis but have none
           ===>>> Using AutoAux, but it is safer for you to specify one in the input
           ===>>> Done building the auxiliary basis
           ===>>> Writing GBW file done
================================================================================
                                       INPUT FILE
================================================================================
NAME = /home/jan/SoftwareDevelopment/ORCAunleashed/output/acrylonitrile/acrylonitrile.in
|  1> !aug-cc-pVDZ B3LYP NMR
|  2> 
|  3> *xyzfile 0 1 guess.xyz
|  4> 
|  5> 
|  6>                          ****END OF INPUT****
================================================================================

                       ****************************
                       * Single Point Calculation *
                       ****************************

---------------------------------
CARTESIAN COORDINATES (ANGSTROEM)
---------------------------------
  C     -4.942800    4.814740   -0.045420
  C     -5.903350    3.947980    0.298960
  H     -4.970490    5.841600    0.305710
  H     -4.110270    4.525380   -0.681470
  C     -5.904300    2.595700   -0.139080
  H     -6.723290    4.262630    0.935010
  N     -5.909270    1.491710   -0.493960

----------------------------
CARTESIAN COORDINATES (A.U.)
----------------------------
  NO LB      ZA    FRAG     MASS         X           Y           Z
   0 C     6.0000    0    12.011   -9.340538    9.098540   -0.085831
   1 C     6.0000    0    12.011  -11.155715    7.460601    0.564953
   2 H     1.0000    0     1.008   -9.392865   11.039024    0.577708
   3 H     1.0000    0     1.008   -7.767285    8.551729   -1.287792
   4 C     6.0000    0    12.011  -11.157510    4.905162   -0.262823
   5 H     1.0000    0     1.008  -12.705177    8.055203    1.766913
   6 N     7.0000    0    14.007  -11.166902    2.818923   -0.933449

--------------------------------
INTERNAL COORDINATES (ANGSTROEM)
--------------------------------
 C      0   0   0     0.000000000000     0.00000000     0.00000000
 C      1   0   0     1.338852786717     0.00000000     0.00000000
 H      1   2   0     1.085587616271   120.72186515     0.00000000
 H      1   2   3     1.086919966235   121.85024229   180.00069331
 C      2   1   3     1.421457400874   122.48628306   179.99999218
 H      2   1   3     1.084373472840   120.36532752     0.00000000
 N      5   2   1     1.159637199903   179.75617117   179.99428552

---------------------------
INTERNAL COORDINATES (A.U.)
---------------------------
 C      0   0   0     0.000000000000     0.00000000     0.00000000
 C      1   0   0     2.530065100532     0.00000000     0.00000000
 H      1   2   0     2.051463289128   120.72186515     0.00000000
 H      1   2   3     2.053981065675   121.85024229   180.00069331
 C      2   1   3     2.686165198688   122.48628306   179.99999218
 H      2   1   3     2.049168890557   120.36532752     0.00000000
 N      5   2   1     2.191396722525   179.75617117   179.99428552

---------------------
BASIS SET INFORMATION
---------------------
There are 3 groups of distinct atoms

 Group   1 Type C   : 18s5p2d contracted to 4s3p2d pattern {8811/311/11}
 Group   2 Type H   : 5s2p contracted to 3s2p pattern {311/11}
 Group   3 Type N   : 18s5p2d contracted to 4s3p2d pattern {8811/311/11}

Atom   0C    basis set group =>   1
Atom   1C    basis set group =>   1
Atom   2H    basis set group =>   2
Atom   3H    basis set group =>   2
Atom   4C    basis set group =>   1
Atom   5H    basis set group =>   2
Atom   6N    basis set group =>   3

INFORMATION: There is an auxiliary basis set but the global RI flag is NOT set

-------------------------------
AUXILIARY BASIS SET INFORMATION
-------------------------------
There are 3 groups of distinct atoms

 Group   1 Type C   : 18s15p14d5f contracted to 18s15p14d5f pattern {111111111111111111/111111111111111/11111111111111/11111}
 Group   2 Type H   : 12s5p4d contracted to 12s5p4d pattern {111111111111/11111/1111}
 Group   3 Type N   : 18s15p14d5f contracted to 18s15p14d5f pattern {111111111111111111/111111111111111/11111111111111/11111}

Atom   0C    basis set group =>   1
Atom   1C    basis set group =>   1
Atom   2H    basis set group =>   2
Atom   3H    basis set group =>   2
Atom   4C    basis set group =>   1
Atom   5H    basis set group =>   2
Atom   6N    basis set group =>   3

Checking for AutoStart:
The File: /home/jan/SoftwareDevelopment/ORCAunleashed/output/acrylonitrile/acrylonitrile.gbw exists
Trying to determine its content:
     ... Fine, the file contains calculation information
     ... Fine, the calculation information was read
     ... Fine, the file contains a basis set
     ... Fine, the basis set was read
     ... Fine, the file contains a geometry
     ... Fine, the geometry was read
     ... The file does not contain orbitals - skipping AutoStart
------------------------------------------------------------------------------
                           ORCA GTO INTEGRAL CALCULATION
------------------------------------------------------------------------------

                         BASIS SET STATISTICS AND STARTUP INFO

 # of primitive gaussian shells          ...  121
 # of primitive gaussian functions       ...  205
 # of contracted shells                  ...   51
 # of contracted basis functions         ...  119
 Highest angular momentum                ...    2
 Maximum contraction depth               ...    8
 Integral package used                   ... LIBINT
 Integral threshhold            Thresh   ...  1.000e-10
 Primitive cut-off              TCut     ...  1.000e-11


------------------------------ INTEGRAL EVALUATION ----------------------------


 * One electron integrals 
 Pre-screening matrix                    ... done
 Shell pair data                         ... done (   0.001 sec)

-------------------------------------------------------------------------------
                                 ORCA SCF
-------------------------------------------------------------------------------

------------
SCF SETTINGS
------------
Hamiltonian:
 Density Functional     Method          .... DFT(GTOs)
 Exchange Functional    Exchange        .... B88
   X-Alpha parameter    XAlpha          ....  0.666667
   Becke's b parameter  XBeta           ....  0.004200
 Correlation Functional Correlation     .... LYP
 LDA part of GGA corr.  LDAOpt          .... VWN-5
 Gradients option       PostSCFGGA      .... off
 Hybrid DFT is turned on
   Fraction HF Exchange ScalHFX         ....  0.200000
   Scaling of DF-GGA-X  ScalDFX         ....  0.720000
   Scaling of DF-GGA-C  ScalDFC         ....  0.810000
   Scaling of DF-LDA-C  ScalLDAC        ....  1.000000
   Perturbative correction              ....  0.000000
   NL short-range parameter             ....  4.800000


General Settings:
 Integral files         IntName         .... /home/jan/SoftwareDevelopment/ORCAunleashed/output/acrylonitrile/acrylonitrile
 Hartree-Fock type      HFTyp           .... RHF
 Total Charge           Charge          ....    0
 Multiplicity           Mult            ....    1
 Number of Electrons    NEL             ....   28
 Basis Dimension        Dim             ....  119
 Nuclear Repulsion      ENuc            ....     90.2117391130 Eh

Convergence Acceleration:
 DIIS                   CNVDIIS         .... on
   Start iteration      DIISMaxIt       ....    12
   Startup error        DIISStart       ....  0.200000
   # of expansion vecs  DIISMaxEq       ....     5
   Bias factor          DIISBfac        ....   1.050
   Max. coefficient     DIISMaxC        ....  10.000
 Newton-Raphson         CNVNR           .... off
 SOSCF                  CNVSOSCF        .... on
   Start iteration      SOSCFMaxIt      ....   150
   Startup grad/error   SOSCFStart      ....  0.003300
 Level Shifting         CNVShift        .... on
   Level shift para.    LevelShift      ....    0.2500
   Turn off err/grad.   ShiftErr        ....    0.0010
 Zerner damping         CNVZerner       .... off
 Static damping         CNVDamp         .... on
   Fraction old density DampFac         ....    0.7000
   Max. Damping (<1)    DampMax         ....    0.9800
   Min. Damping (>=0)   DampMin         ....    0.0000
   Turn off err/grad.   DampErr         ....    0.1000
 Fernandez-Rico         CNVRico         .... off

SCF Procedure:
 Maximum # iterations   MaxIter         ....   125
 SCF integral mode      SCFMode         .... Direct
   Integral package                     .... LIBINT
 Reset frequeny         DirectResetFreq ....    20
 Integral Threshold     Thresh          ....  1.000e-10 Eh
 Primitive CutOff       TCut            ....  1.000e-11 Eh

Convergence Tolerance:
 Convergence Check Mode ConvCheckMode   .... Total+1el-Energy
 Convergence forced     ConvForced      .... 0
 Energy Change          TolE            ....  1.000e-06 Eh
 1-El. energy change                    ....  1.000e-03 Eh
 Orbital Gradient       TolG            ....  5.000e-05
 Orbital Rotation angle TolX            ....  5.000e-05
 DIIS Error             TolErr          ....  1.000e-06


Diagonalization of the overlap matrix:
Smallest eigenvalue                        ... 1.768e-03
Time for diagonalization                   ...    0.002 sec
Threshold for overlap eigenvalues          ... 1.000e-08
Number of eigenvalues below threshold      ... 0
Time for construction of square roots      ...    0.000 sec
Total time needed                          ...    0.002 sec

-------------------
DFT GRID GENERATION
-------------------

General Integration Accuracy     IntAcc      ...  4.340
Radial Grid Type                 RadialGrid  ... Gauss-Chebyshev
Angular Grid (max. acc.)         AngularGrid ... Lebedev-110
Angular grid pruning method      GridPruning ... 3 (G Style)
Weight generation scheme         WeightScheme... Becke
Basis function cutoff            BFCut       ...    1.0000e-10
Integration weight cutoff        WCut        ...    1.0000e-14
Grids for H and He will be reduced by one unit

# of grid points (after initial pruning)     ...   9052 (   0.0 sec)
# of grid points (after weights+screening)   ...   8783 (   0.0 sec)
nearest neighbour list constructed           ...    0.0 sec
Grid point re-assignment to atoms done       ...    0.0 sec
Grid point division into batches done        ...    0.0 sec
Reduced shell lists constructed in    0.1 sec

Total number of grid points                  ...     8783
Total number of batches                      ...      141
Average number of points per batch           ...       62
Average number of grid points per atom       ...     1255
Average number of shells per batch           ...    46.48 (91.14%)
Average number of basis functions per batch  ...   108.65 (91.30%)
Average number of large shells per batch     ...    41.15 (88.55%)
Average number of large basis fcns per batch ...    97.14 (89.41%)
Maximum spatial batch extension              ...  21.59, 24.55, 25.60 au
Average spatial batch extension              ...   4.91,  4.52,  5.01 au

Time for grid setup =    0.139 sec

------------------------------
INITIAL GUESS: MODEL POTENTIAL
------------------------------
Loading Hartree-Fock densities                     ... done
Calculating cut-offs                               ... done
Setting up the integral package                    ... done
Initializing the effective Hamiltonian             ... done
Starting the Coulomb interaction                   ... done (   0.1 sec)
Reading the grid                                   ... done
Mapping shells                                     ... done
Starting the XC term evaluation                    ... done (   0.2 sec)
  promolecular density results
     # of electrons  =     28.001164409
     EX              =    -22.783203969
     EC              =     -0.919033155
     EX+EC           =    -23.702237124
Transforming the Hamiltonian                       ... done (   0.0 sec)
Diagonalizing the Hamiltonian                      ... done (   0.0 sec)
Back transforming the eigenvectors                 ... done (   0.0 sec)
Now organizing SCF variables                       ... done
                      ------------------
                      INITIAL GUESS DONE (   0.5 sec)
                      ------------------
--------------
SCF ITERATIONS
--------------
ITER       Energy         Delta-E        Max-DP      RMS-DP      [F,P]     Damp
               ***  Starting incremental Fock matrix formation  ***
  0   -170.6289366019   0.000000000000 1.20253566  0.01810806  9.1951629 0.7000
  1   -170.6882707980  -0.059334196099 0.70627656  0.01015817  4.5415372 0.7000
  2   -170.7078005169  -0.019529718843 0.19577451  0.00343581  2.5807303 0.7000
  3   -170.7203816344  -0.012581117582 0.06955442  0.00171700  1.3524629 0.7000
                      *** Initiating the SOSCF procedure ***
                      *** Re-Reading the Fockian *** 
                      *** Removing any level shift *** 
ITER      Energy       Delta-E        Grad      Rot      Max-DP    RMS-DP
  4   -170.72945517  -0.0090735356  0.002556  0.002556  0.141408  0.003217
               *** Restarting incremental Fock matrix formation ***
  5   -170.74952075  -0.0200655829  0.007775  0.021073  0.433408  0.006310
  6   -170.74640431   0.0031164387  0.021549  0.016290  0.349326  0.004912
  7   -170.75017460  -0.0037702870  0.000814  0.002804  0.045342  0.000884
  8   -170.75017463  -0.0000000305  0.000867  0.001847  0.020975  0.000428
  9   -170.75021140  -0.0000367672  0.000259  0.000982  0.005879  0.000108
 10   -170.75021011   0.0000012931  0.000425  0.000629  0.003887  0.000068
 11   -170.75021209  -0.0000019820  0.000014  0.000034  0.000412  0.000010
                 **** Energy Check signals convergence ****
              ***Rediagonalizing the Fockian in SOSCF/NRSCF***

               *****************************************************
               *                     SUCCESS                       *
               *           SCF CONVERGED AFTER  12 CYCLES          *
               *****************************************************

Setting up the final grid:

General Integration Accuracy     IntAcc      ...  4.670
Radial Grid Type                 RadialGrid  ... Gauss-Chebyshev
Angular Grid (max. acc.)         AngularGrid ... Lebedev-302
Angular grid pruning method      GridPruning ... 3 (G Style)
Weight generation scheme         WeightScheme... Becke
Basis function cutoff            BFCut       ...    1.0000e-10
Integration weight cutoff        WCut        ...    1.0000e-14
Grids for H and He will be reduced by one unit

# of grid points (after initial pruning)     ...  35030 (   0.0 sec)
# of grid points (after weights+screening)   ...  33785 (   0.0 sec)
nearest neighbour list constructed           ...    0.0 sec
Grid point re-assignment to atoms done       ...    0.0 sec
Grid point division into batches done        ...    0.1 sec
Reduced shell lists constructed in    0.6 sec

Total number of grid points                  ...    33785
Total number of batches                      ...      532
Average number of points per batch           ...       63
Average number of grid points per atom       ...     4826
Average number of shells per batch           ...    44.35 (86.96%)
Average number of basis functions per batch  ...   103.50 (86.97%)
Average number of large shells per batch     ...    38.47 (86.74%)
Average number of large basis fcns per batch ...    90.48 (87.42%)
Maximum spatial batch extension              ...  20.64, 18.51, 21.46 au
Average spatial batch extension              ...   3.22,  3.06,  3.34 au

Final grid set up in    0.6 sec
Final integration                            ... done (   0.7 sec)
Change in XC energy                          ...     0.000111464
Integrated number of electrons               ...    28.000002961
Previous integrated no of electrons          ...    28.001648296

----------------
TOTAL SCF ENERGY
----------------

Total Energy       :         -170.75010062 Eh           -4646.34645 eV

Components:
Nuclear Repulsion  :           90.21173911 Eh            2454.78622 eV
Electronic Energy  :         -260.96183974 Eh           -7101.13267 eV
One Electron Energy:         -407.27345375 Eh          -11082.47410 eV
Two Electron Energy:          146.31161402 Eh            3981.34142 eV

Virial components:
Potential Energy   :         -340.48390349 Eh           -9265.03804 eV
Kinetic Energy     :          169.73380287 Eh            4618.69159 eV
Virial Ratio       :            2.00598760


DFT components:
N(Alpha)           :       14.000001480537 electrons
N(Beta)            :       14.000001480537 electrons
N(Total)           :       28.000002961075 electrons
E(X)               :      -18.373898487105 Eh       
E(C)               :       -1.093844516283 Eh       
E(XC)              :      -19.467743003388 Eh       

---------------
SCF CONVERGENCE
---------------

  Last Energy change         ...    1.2276e-09  Tolerance :   1.0000e-06
  Last MAX-Density change    ...    2.2319e-04  Tolerance :   1.0000e-05
  Last RMS-Density change    ...    5.4938e-06  Tolerance :   1.0000e-06
  Last Orbital Gradient      ...    1.7437e-05  Tolerance :   5.0000e-05
  Last Orbital Rotation      ...    1.7056e-05  Tolerance :   5.0000e-05

             **** THE GBW FILE WAS UPDATED (/home/jan/SoftwareDevelopment/ORCAunleashed/output/acrylonitrile/acrylonitrile.gbw) ****
             **** DENSITY FILE WAS UPDATED (/home/jan/SoftwareDevelopment/ORCAunleashed/output/acrylonitrile/acrylonitrile.scfp.tmp) ****
             **** ENERGY FILE WAS UPDATED (/home/jan/SoftwareDevelopment/ORCAunleashed/output/acrylonitrile/acrylonitrile.en.tmp) ****
----------------
ORBITAL ENERGIES
----------------

  NO   OCC          E(Eh)            E(eV) 
   0   2.0000     -14.344755      -390.3406 
   1   2.0000     -10.248319      -278.8709 
   2   2.0000     -10.237050      -278.5643 
   3   2.0000     -10.233016      -278.4545 
   4   2.0000      -0.920865       -25.0580 
   5   2.0000      -0.825762       -22.4701 
   6   2.0000      -0.665567       -18.1110 
   7   2.0000      -0.545959       -14.8563 
   8   2.0000      -0.487272       -13.2593 
   9   2.0000      -0.420947       -11.4545 
  10   2.0000      -0.389107       -10.5881 
  11   2.0000      -0.372903       -10.1472 
  12   2.0000      -0.344841        -9.3836 
  13   2.0000      -0.297970        -8.1082 
  14   0.0000      -0.071272        -1.9394 
  15   0.0000      -0.017169        -0.4672 
  16   0.0000       0.006748         0.1836 
  17   0.0000       0.014568         0.3964 
  18   0.0000       0.024587         0.6691 
  19   0.0000       0.049299         1.3415 
  20   0.0000       0.056119         1.5271 
  21   0.0000       0.064483         1.7547 
  22   0.0000       0.069485         1.8908 
  23   0.0000       0.083868         2.2822 
  24   0.0000       0.087990         2.3943 
  25   0.0000       0.091925         2.5014 
  26   0.0000       0.101501         2.7620 
  27   0.0000       0.106292         2.8923 
  28   0.0000       0.115343         3.1386 
  29   0.0000       0.116189         3.1617 
  30   0.0000       0.133992         3.6461 
  31   0.0000       0.170568         4.6414 
  32   0.0000       0.194624         5.2960 
  33   0.0000       0.197518         5.3747 
  34   0.0000       0.202346         5.5061 
  35   0.0000       0.213387         5.8066 
  36   0.0000       0.220814         6.0086 
  37   0.0000       0.234348         6.3769 
  38   0.0000       0.255646         6.9565 
  39   0.0000       0.268801         7.3144 
  40   0.0000       0.287944         7.8354 
  41   0.0000       0.304258         8.2793 
  42   0.0000       0.319746         8.7007 
  43   0.0000       0.337118         9.1734 
  44   0.0000       0.348741         9.4897 
  45   0.0000       0.372971        10.1491 
  46   0.0000       0.377362        10.2685 
  47   0.0000       0.404669        11.0116 
  48   0.0000       0.418420        11.3858 
  49   0.0000       0.451845        12.2953 
  50   0.0000       0.472760        12.8645 
  51   0.0000       0.474905        12.9228 
  52   0.0000       0.491093        13.3633 
  53   0.0000       0.497752        13.5445 
  54   0.0000       0.498569        13.5668 
  55   0.0000       0.503983        13.7141 
  56   0.0000       0.530132        14.4256 
  57   0.0000       0.533945        14.5294 
  58   0.0000       0.550858        14.9896 
  59   0.0000       0.569381        15.4936 
  60   0.0000       0.598663        16.2905 
  61   0.0000       0.603312        16.4169 
  62   0.0000       0.621062        16.9000 
  63   0.0000       0.661486        18.0000 
  64   0.0000       0.671059        18.2605 
  65   0.0000       0.707319        19.2471 
  66   0.0000       0.723397        19.6846 
  67   0.0000       0.794690        21.6246 
  68   0.0000       0.795923        21.6582 
  69   0.0000       0.820335        22.3225 
  70   0.0000       0.826184        22.4816 
  71   0.0000       0.831922        22.6378 
  72   0.0000       0.838529        22.8175 
  73   0.0000       0.892103        24.2753 
  74   0.0000       0.956889        26.0383 
  75   0.0000       0.958988        26.0954 
  76   0.0000       1.042863        28.3778 
  77   0.0000       1.058918        28.8146 
  78   0.0000       1.117854        30.4184 
  79   0.0000       1.217982        33.1430 
  80   0.0000       1.265576        34.4381 
  81   0.0000       1.285767        34.9875 
  82   0.0000       1.335472        36.3400 
  83   0.0000       1.341686        36.5091 
  84   0.0000       1.381145        37.5829 
  85   0.0000       1.407079        38.2886 
  86   0.0000       1.422297        38.7027 
  87   0.0000       1.443680        39.2845 
  88   0.0000       1.445578        39.3362 
  89   0.0000       1.477827        40.2137 
  90   0.0000       1.503351        40.9083 
  91   0.0000       1.561585        42.4929 
  92   0.0000       1.591147        43.2973 
  93   0.0000       1.608805        43.7778 
  94   0.0000       1.682614        45.7862 
  95   0.0000       1.745462        47.4964 
  96   0.0000       1.782064        48.4924 
  97   0.0000       1.789582        48.6970 
  98   0.0000       1.811722        49.2995 
  99   0.0000       1.849768        50.3347 
 100   0.0000       1.869703        50.8772 
 101   0.0000       1.930978        52.5446 
 102   0.0000       1.974454        53.7276 
 103   0.0000       2.072235        56.3884 
 104   0.0000       2.110269        57.4233 
 105   0.0000       2.212429        60.2032 
 106   0.0000       2.246012        61.1171 
 107   0.0000       2.290705        62.3333 
 108   0.0000       2.324899        63.2637 
 109   0.0000       2.343843        63.7792 
 110   0.0000       2.393023        65.1175 
 111   0.0000       2.430382        66.1340 
 112   0.0000       2.518238        68.5247 
 113   0.0000       2.680148        72.9305 
 114   0.0000       2.806942        76.3808 
 115   0.0000       2.944413        80.1216 
 116   0.0000       3.056070        83.1599 
 117   0.0000       3.192042        86.8599 
 118   0.0000       3.229751        87.8860 

                    ********************************
                    * MULLIKEN POPULATION ANALYSIS *
                    ********************************

-----------------------
MULLIKEN ATOMIC CHARGES
-----------------------
   0 C :    0.785345
   1 C :    1.339727
   2 H :   -0.467501
   3 H :   -0.516480
   4 C :   -0.369198
   5 H :   -0.627212
   6 N :   -0.144681
Sum of atomic charges:   -0.0000000

--------------------------------
MULLIKEN REDUCED ORBITAL CHARGES
--------------------------------
  0 C s       :    70.226598  s :    70.226598
      pz      :     2.261567  p :     6.863100
      px      :     2.313994
      py      :     2.287539
      dz2     :    -0.001464  d :    -0.196520
      dxz     :    -0.034929
      dyz     :    -0.034128
      dx2y2   :    -0.073770
      dxy     :    -0.052227
  1 C s       :    69.734842  s :    69.734842
      pz      :     2.513209  p :     6.699560
      px      :     2.332493
      py      :     1.853858
      dz2     :     0.005785  d :    -0.182536
      dxz     :    -0.029745
      dyz     :    -0.033575
      dx2y2   :    -0.068545
      dxy     :    -0.056457
  2 H s       :     0.430869  s :     0.430869
      pz      :    -0.008216  p :    -0.061420
      px      :    -0.024533
      py      :    -0.028672
  3 H s       :     0.570235  s :     0.570235
      pz      :    -0.005918  p :    -0.054706
      px      :    -0.011314
      py      :    -0.037475
  4 C s       :    69.339852  s :    69.339852
      pz      :     2.479554  p :     7.630834
      px      :     2.407991
      py      :     2.743288
      dz2     :     0.020370  d :     0.141337
      dxz     :     0.003889
      dyz     :     0.049857
      dx2y2   :     0.023026
      dxy     :     0.044196
  5 H s       :     0.522804  s :     0.522804
      pz      :     0.000981  p :    -0.064625
      px      :    -0.027504
      py      :    -0.038101
  6 N s       :   115.513065  s :   115.513065
      pz      :     6.838419  p :    22.189343
      px      :     6.589050
      py      :     8.761873
      dz2     :     0.008630  d :     0.065924
      dxz     :     0.002086
      dyz     :     0.020518
      dx2y2   :     0.014701
      dxy     :     0.019990


                     *******************************
                     * LOEWDIN POPULATION ANALYSIS *
                     *******************************

----------------------
LOEWDIN ATOMIC CHARGES
----------------------
   0 C :   -0.075418
   1 C :   -0.638540
   2 H :    0.223018
   3 H :    0.238999
   4 C :   -0.206644
   5 H :    0.263949
   6 N :    0.194635

-------------------------------
LOEWDIN REDUCED ORBITAL CHARGES
-------------------------------
  0 C s       :     2.329776  s :     2.329776
      pz      :     0.831458  p :     2.906090
      px      :     1.032327
      py      :     1.042305
      dz2     :     0.074332  d :     0.839551
      dxz     :     0.171690
      dyz     :     0.103183
      dx2y2   :     0.297372
      dxy     :     0.192974
  1 C s       :     2.290481  s :     2.290481
      pz      :     0.865658  p :     2.980232
      px      :     1.015428
      py      :     1.099147
      dz2     :     0.130612  d :     1.367827
      dxz     :     0.200011
      dyz     :     0.240140
      dx2y2   :     0.427922
      dxy     :     0.369141
  2 H s       :     0.449213  s :     0.449213
      pz      :     0.080692  p :     0.327769
      px      :     0.075277
      py      :     0.171800
  3 H s       :     0.432771  s :     0.432771
      pz      :     0.103683  p :     0.328230
      px      :     0.130628
      py      :     0.093919
  4 C s       :     2.272964  s :     2.272964
      pz      :     0.709868  p :     2.651510
      px      :     0.639861
      py      :     1.301780
      dz2     :     0.164440  d :     1.282170
      dxz     :     0.032859
      dyz     :     0.366491
      dx2y2   :     0.427158
      dxy     :     0.291221
  5 H s       :     0.414717  s :     0.414717
      pz      :     0.104877  p :     0.321333
      px      :     0.134353
      py      :     0.082104
  6 N s       :     2.824038  s :     2.824038
      pz      :     1.099472  p :     3.656452
      px      :     1.044545
      py      :     1.512435
      dz2     :     0.041481  d :     0.324874
      dxz     :     0.008679
      dyz     :     0.096024
      dx2y2   :     0.101207
      dxy     :     0.077483


                      *****************************
                      * MAYER POPULATION ANALYSIS *
                      *****************************

  NA   - Mulliken gross atomic population
  ZA   - Total nuclear charge
  QA   - Mulliken gross atomic charge
  VA   - Mayer's total valence
  BVA  - Mayer's bonded valence
  FA   - Mayer's free valence

  ATOM       NA         ZA         QA         VA         BVA        FA
  0 C      5.2147     6.0000     0.7853     2.9280     2.9280     0.0000
  1 C      4.6603     6.0000     1.3397     2.5405     2.5405    -0.0000
  2 H      1.4675     1.0000    -0.4675     0.4280     0.4280     0.0000
  3 H      1.5165     1.0000    -0.5165     0.4925     0.4925    -0.0000
  4 C      6.3692     6.0000    -0.3692     3.3361     3.3361    -0.0000
  5 H      1.6272     1.0000    -0.6272     0.3911     0.3911     0.0000
  6 N      7.1447     7.0000    -0.1447     2.7970     2.7970    -0.0000

  Mayer bond orders larger than 0.1
B(  0-C ,  1-C ) :   1.4018 B(  0-C ,  2-H ) :   0.6389 B(  0-C ,  3-H ) :   0.9259 
B(  0-C ,  5-H ) :  -0.2169 B(  0-C ,  6-N ) :   0.1218 B(  1-C ,  3-H ) :  -0.1425 
B(  1-C ,  4-C ) :   0.5923 B(  1-C ,  5-H ) :   0.6051 B(  2-H ,  3-H ) :  -0.2701 
B(  4-C ,  6-N ) :   2.6839 

-------
TIMINGS
-------

Total SCF time: 0 days 0 hours 0 min 30 sec 

Total time                  ....      30.776 sec
Sum of individual times     ....      30.760 sec  ( 99.9%)

Fock matrix formation       ....      29.669 sec  ( 96.4%)
  XC integration            ....       3.021 sec  ( 10.2% of F)
    Basis function eval.    ....       1.718 sec  ( 56.9% of XC)
    Density eval.           ....       0.325 sec  ( 10.7% of XC)
    XC-Functional eval.     ....       0.113 sec  (  3.7% of XC)
    XC-Potential eval.      ....       0.829 sec  ( 27.4% of XC)
Diagonalization             ....       0.011 sec  (  0.0%)
Density matrix formation    ....       0.001 sec  (  0.0%)
Population analysis         ....       0.003 sec  (  0.0%)
Initial guess               ....       0.335 sec  (  1.1%)
Orbital Transformation      ....       0.000 sec  (  0.0%)
Orbital Orthonormalization  ....       0.000 sec  (  0.0%)
DIIS solution               ....       0.002 sec  (  0.0%)
SOSCF solution              ....       0.009 sec  (  0.0%)
Grid generation             ....       0.730 sec  (  2.4%)

-------------------------   --------------------
FINAL SINGLE POINT ENERGY      -170.750100623023
-------------------------   --------------------


                            ***************************************
                            *     ORCA property calculations      *
                            ***************************************

                                    ---------------------
                                    Active property flags
                                    ---------------------
   (+) Dipole Moment
   (+) Chemical Shifts


------------------------------------------------------------------------------
                       ORCA ELECTRIC PROPERTIES CALCULATION
------------------------------------------------------------------------------

Dipole Moment Calculation                       ... on
Quadrupole Moment Calculation                   ... off
Polarizability Calculation                      ... off
GBWName                                         ... /home/jan/SoftwareDevelopment/ORCAunleashed/output/acrylonitrile/acrylonitrile.gbw
Electron density file                           ... /home/jan/SoftwareDevelopment/ORCAunleashed/output/acrylonitrile/acrylonitrile.scfp.tmp

-------------
DIPOLE MOMENT
-------------
                                X             Y             Z
Electronic contribution:     -0.93356      -3.06232      -0.38344
Nuclear contribution   :      1.07791       4.58903       0.78663
                        -----------------------------------------
Total Dipole Moment    :      0.14435       1.52671       0.40319
                        -----------------------------------------
Magnitude (a.u.)       :      1.58564
Magnitude (Debye)      :      4.03037

------------------------------------------------------------------------------
                                ORCA EPR/NMR CALCULATION
------------------------------------------------------------------------------

GBWName                      ... /home/jan/SoftwareDevelopment/ORCAunleashed/output/acrylonitrile/acrylonitrile.gbw
Electron density file        ... /home/jan/SoftwareDevelopment/ORCAunleashed/output/acrylonitrile/acrylonitrile.scfp.tmp
Spin density file            ... /home/jan/SoftwareDevelopment/ORCAunleashed/output/acrylonitrile/acrylonitrile.scfr.tmp
Treatment of gauge           ... GIAO (approximations 1/2el = 0,3)
Details of the CP(SCF) procedure:
       Solver   = POPLE   
       MaxIter  =    64   
       Tolerance=    1.000e-06
       Op-0     =   0- 13 =>  14-118
Multiplicity                 ... 1
g-tensor                     ... 0
NMR chemical shifts          ... 1
Number of nuclei for epr/nmr ... 7
   Nucleus:   0C 
       Hyperfine : Isotope=   13 I=   0.500 P= 134.188
       Quadrupole: Isotope=   13 I=   0.500 Q=   0.000
       Spin-Orbit: Zeff=   3.600
       rho(0)=N f(grad)=N a(iso)=N a(dip)=N a(orb)=N sigma(nmr)=Y
   Nucleus:   1C 
       Hyperfine : Isotope=   13 I=   0.500 P= 134.188
       Quadrupole: Isotope=   13 I=   0.500 Q=   0.000
       Spin-Orbit: Zeff=   3.600
       rho(0)=N f(grad)=N a(iso)=N a(dip)=N a(orb)=N sigma(nmr)=Y
   Nucleus:   2H 
       Hyperfine : Isotope=    1 I=   0.500 P= 533.552
       Quadrupole: Isotope=    2 I=   1.000 Q=   0.003
       Spin-Orbit: Zeff=   1.000
       rho(0)=N f(grad)=N a(iso)=N a(dip)=N a(orb)=N sigma(nmr)=Y
   Nucleus:   3H 
       Hyperfine : Isotope=    1 I=   0.500 P= 533.552
       Quadrupole: Isotope=    2 I=   1.000 Q=   0.003
       Spin-Orbit: Zeff=   1.000
       rho(0)=N f(grad)=N a(iso)=N a(dip)=N a(orb)=N sigma(nmr)=Y
   Nucleus:   4C 
       Hyperfine : Isotope=   13 I=   0.500 P= 134.188
       Quadrupole: Isotope=   13 I=   0.500 Q=   0.000
       Spin-Orbit: Zeff=   3.600
       rho(0)=N f(grad)=N a(iso)=N a(dip)=N a(orb)=N sigma(nmr)=Y
   Nucleus:   5H 
       Hyperfine : Isotope=    1 I=   0.500 P= 533.552
       Quadrupole: Isotope=    2 I=   1.000 Q=   0.003
       Spin-Orbit: Zeff=   1.000
       rho(0)=N f(grad)=N a(iso)=N a(dip)=N a(orb)=N sigma(nmr)=Y
   Nucleus:   6N 
       Hyperfine : Isotope=   14 I=   1.000 P=  38.571
       Quadrupole: Isotope=   14 I=   1.000 Q=   0.020
       Spin-Orbit: Zeff=   4.550
       rho(0)=N f(grad)=N a(iso)=N a(dip)=N a(orb)=N sigma(nmr)=Y
Using LibInt in CPSCF-CP

Forming RHS of the CP-SCF equations         ... 
Calculating right hand sides for GIAO treatment (new)  ... 
  Entering RightHandSide GIAO. ScalHFX=    0.2000 NeedHFX=1
     -> 1-electron GIAO integrals will be done analytically
     -> SCF done analytically but RIJK requested in GIAOs
     -> using RIJK
     Making grid for GIAO integrations   ... done
     Test of existence of the V matrix   = 0
     Test of existence of the VCD matrix = 0
     Test of existence of the VO matrix  = 0
     Warning: RI is turned on for GIAO but the V matrix or its Cholesky decomposition are not found - making it
     Calculating V           ... done
     Cholesky decomposition  ... done
     Storing V and VCD       ... done
     Cholesky decomposition-2... done
     Storing VO              ... done
  Getting the pre-screening matrix        ... done
  Extracting occupied and virtual blocks  ... 
  Operator  0  NO=  14 NV= 105 
  One-electron GIAO integrals             ...   done
  Transforming and RHS contribution       ...   done
  Projecting overlap derivatives          ...   done
  Building G(dS/dB_ij)                    ...   done
  Transforming to MO basis/RHS contribs.  ...   done
  Calculating F[B](P)                     ...  (RI-JK)
---------------------
RI-GIAO-TRANSFORMATION (AUX index driven)
----------------------

Dimension of the orbital-basis         ... 119
Dimension of the aux-basis             ... 813
Number of (i,a) MOs                    ... 14,105
Number of ij,ia,ab pairs               ... 196,1470,11025
Transformation of internal MOs         ...    0-  13
Transformation of internal/external MOs...    0-  13 to   14- 118

Mapping shells                                 ... done
Making shell addresses                         ... done
Figuring out significant basis function pairs  ... done
  N(Pairs)         ... 7140
  N(Strong pairs)  ... 7123
  Mem-Available    ... 1024 MB
  (p,q) per batch  ... 20633
  N(Batches)       ... 1
Preparing matrix containers                    ... done
Preparing AO buffer                            ... done
Calculating AO integrals and transforming AUX  ... done
Finished RI-GIAO integral generation and aux-index transformation in  2.874 sec
Mapping the MO pairs                            ... done
Getting memory                                  ... done
Second Phase: sorting and transformation of MO indices
Memory available                       ... 1024 MB 
Max. # Aux fcns treated in a batch     ... 813    
Initializing the MO transformation process      ... done
Batch   0: Q=   0 ...  812
   Reading      ... done
   Transforming ... done
Finished transformation of the MO indices in  1.806 sec
Initializing the sorting process                ... done

IJ-Resorting
# of internal pairs                    ... 196
# batches for internal pairs           ... 1
   (0) Reading      ... done
   (0) Writing      ... done
   (1) Reading      ... done
   (1) Writing      ... done
   (2) Reading      ... done
   (2) Writing      ... done
   (3) Reading      ... done
   (3) Writing      ... done
(ij|v) resorting done in     0.016 sec

IA-Resorting
# of internal orbitals                 ... 14
# batches for internal orbitals        ... 1
   (0) Reading      ... done
   (0) Writing      ... done
   (1) Reading      ... done
   (1) Writing      ... done
   (2) Reading      ... done
   (2) Writing      ... done
   (3) Reading      ... done
   (3) Writing      ... done
(ia|v) resorting done in     0.048 sec

  Resorting completed in     0.064 sec
RI-GIAO-Integral transformation completed in     4.789 sec
Reading RI-integrals ... done
Doing RI-JK          ... done
 => dG/dB done
  RI-JK GIAO contributions                ...   done
  DFT XC-terms                            ... done
  Transforming to MO basis/RHS contribs.  ... done
  GIAO profiling information: 
    Total GIAO time               ...      11.8 sec
       Grid setup                 ...       0.1 sec (  1.1%)
       RI-V-matrix setup          ...       0.1 sec (  0.7%)
       GIAO 1-electron integrals  ...       0.0 sec (  0.2%)
       GIAO G(dS/dB) terms        ...       2.5 sec ( 21.3%)
       GIAO RI-JK                 ...       3.5 sec ( 29.9%)
       GIAO RI integral trafo     ...       4.8 sec ( 40.7%)
       GIAO XC-terms              ...       0.7 sec (  5.9%)

  GIAO right hand side done

     CP-SCF ITERATION   0: 
     CP-SCF ITERATION   1:      0.004578868
     CP-SCF ITERATION   2:      0.000015309
     CP-SCF ITERATION   3:      0.000000074

Forming final perturbed densities           ... done
Transforming perturbed density to AO basis  ...  done

Magnetic field perturbation calculated in 21.954 sec

---------------
CHEMICAL SHIFTS
---------------

Note: using conversion factor for au to ppm alpha^2/2 =   26.625677252 
Doing GIAO para- and diamagnetic shielding integrals analytically     ...done
Doing remaining GIAO terms numerically                                ...done
 --------------
 Nucleus   0C :
 --------------

Diamagnetic contribution to the shielding tensor (ppm) : 
           201.585          5.678       -44.179
           -20.363        241.794        -1.334
           -23.448         13.662       195.920

Paramagnetic contribution to the shielding tensor (ppm): 
          -132.451          9.530       118.723
            49.384       -246.331       -76.262
           102.220        -82.420       -93.342

Total shielding tensor (ppm): 
            69.135         15.208        74.544
            29.020         -4.537       -77.596
            78.772        -68.758       102.578


 Diagonalized sT*s matrix:
 
 sDSO           228.521          239.433          171.345  iso=     213.100
 sPSO          -203.959         -272.974            4.809  iso=    -157.374
        ---------------  ---------------  ---------------
 Total           24.563          -33.541          176.154  iso=      55.725

 --------------
 Nucleus   1C :
 --------------

Diamagnetic contribution to the shielding tensor (ppm) : 
           202.666         27.004       -44.097
            -2.570        221.871        -1.215
           -45.438         14.414       162.948

Paramagnetic contribution to the shielding tensor (ppm): 
          -102.647          2.454        99.640
            33.265       -184.931       -62.320
           101.475        -76.958       -48.948

Total shielding tensor (ppm): 
           100.019         29.458        55.543
            30.695         36.939       -63.535
            56.037        -62.544       114.000


 Diagonalized sT*s matrix:
 
 sDSO           219.525          234.240          133.719  iso=     195.828
 sPSO          -242.542         -131.034           37.049  iso=    -112.176
        ---------------  ---------------  ---------------
 Total          -23.016          103.206          170.768  iso=      83.653

 --------------
 Nucleus   2H :
 --------------

Diamagnetic contribution to the shielding tensor (ppm) : 
            34.420         -0.869         0.454
             0.454         33.002         6.366
             8.711         -3.843        46.263

Paramagnetic contribution to the shielding tensor (ppm): 
            -7.854          3.531        -0.171
             1.661         -8.404        -8.105
            -8.565          1.697       -21.433

Total shielding tensor (ppm): 
            26.566          2.662         0.283
             2.115         24.598        -1.739
             0.146         -2.146        24.830


 Diagonalized sT*s matrix:
 
 sDSO            36.082           45.303           32.300  iso=      37.895
 sPSO           -14.164          -19.659           -3.868  iso=     -12.563
        ---------------  ---------------  ---------------
 Total           21.919           25.644           28.432  iso=      25.332

 --------------
 Nucleus   3H :
 --------------

Diamagnetic contribution to the shielding tensor (ppm) : 
            32.887         -2.705        -1.439
            -1.123         36.609         2.046
           -16.724         10.147         8.431

Paramagnetic contribution to the shielding tensor (ppm): 
            -7.087          4.486         1.888
             5.645        -11.253        -5.056
            18.087        -11.362        15.895

Total shielding tensor (ppm): 
            25.800          1.781         0.450
             4.522         25.356        -3.010
             1.364         -1.215        24.326


 Diagonalized sT*s matrix:
 
 sDSO            38.038            7.310           32.579  iso=      25.976
 sPSO           -17.045           18.293           -3.694  iso=      -0.815
        ---------------  ---------------  ---------------
 Total           20.993           25.603           28.885  iso=      25.161

 --------------
 Nucleus   4C :
 --------------

Diamagnetic contribution to the shielding tensor (ppm) : 
           258.730          4.774        -7.302
             0.546        281.000        -1.146
           -20.689         14.757       231.277

Paramagnetic contribution to the shielding tensor (ppm): 
          -284.710         -1.430         6.557
             1.560        -19.826        93.837
            19.507         77.154      -229.572

Total shielding tensor (ppm): 
           -25.980          3.344        -0.745
             2.106        261.174        92.691
            -1.183         91.911         1.704


 Diagonalized sT*s matrix:
 
 sDSO           263.993          226.715          280.299  iso=     257.002
 sPSO          -288.918         -255.564           10.373  iso=    -178.036
        ---------------  ---------------  ---------------
 Total          -24.924          -28.849          290.672  iso=      78.966

 --------------
 Nucleus   5H :
 --------------

Diamagnetic contribution to the shielding tensor (ppm) : 
            34.154         -1.034        -1.020
             0.427         32.669         3.461
            25.764        -10.459        73.901

Paramagnetic contribution to the shielding tensor (ppm): 
            -8.029          1.960        -0.209
             1.812         -5.829        -3.953
           -26.519         10.825       -49.515

Total shielding tensor (ppm): 
            26.125          0.926        -1.229
             2.239         26.841        -0.492
            -0.755          0.366        24.387


 Diagonalized sT*s matrix:
 
 sDSO            72.707           35.622           32.395  iso=      46.908
 sPSO           -48.925          -10.277           -4.169  iso=     -21.124
        ---------------  ---------------  ---------------
 Total           23.782           25.345           28.226  iso=      25.784

 --------------
 Nucleus   6N :
 --------------

Diamagnetic contribution to the shielding tensor (ppm) : 
           304.386          1.965        -0.189
            -0.971        337.827        11.618
            -7.930         14.102       295.257

Paramagnetic contribution to the shielding tensor (ppm): 
          -452.736          1.864        -3.043
            -0.434       -137.464       104.675
             2.887         98.697      -410.709

Total shielding tensor (ppm): 
          -148.350          3.829        -3.233
            -1.405        200.363       116.293
            -5.043        112.799      -115.452


 Diagonalized sT*s matrix:
 
 sDSO           304.551          291.676          341.243  iso=     312.490
 sPSO          -449.742         -446.973         -104.194  iso=    -333.636
        ---------------  ---------------  ---------------
 Total         -145.191         -155.297          237.049  iso=     -21.146



--------------------------
CHEMICAL SHIELDING SUMMARY (ppm)
--------------------------


  Nucleus  Element    Isotropic     Anisotropy
  -------  -------  ------------   ------------
      0       C           55.725        180.643 
      1       C           83.653        130.673 
      2       H           25.332          4.651 
      3       H           25.161          5.587 
      4       C           78.966        317.558 
      5       H           25.784          3.663 
      6       N          -21.146        387.293 



Timings for individual modules:

Sum of individual times         ...       61.808 sec (=   1.030 min)
GTO integral calculation        ...        0.243 sec (=   0.004 min)   0.4 %
SCF iterations                  ...       30.792 sec (=   0.513 min)  49.8 %
SCF-level EPR/NMR calculation   ...       30.773 sec (=   0.513 min)  49.8 %
                             ****ORCA TERMINATED NORMALLY****
TOTAL RUN TIME: 0 days 0 hours 1 minutes 1 seconds 907 msec
