
                                 *****************
                                 * O   R   C   A *
                                 *****************

           --- An Ab Initio, DFT and Semiempirical electronic structure package ---

                  #######################################################
                  #                        -***-                        #
                  #  Department of molecular theory and spectroscopy    #
                  #              Directorship: Frank Neese              #
                  # Max Planck Institute for Chemical Energy Conversion #
                  #                  D-45470 Muelheim/Ruhr              #
                  #                       Germany                       #
                  #                                                     #
                  #                  All rights reserved                #
                  #                        -***-                        #
                  #######################################################


                         Program Version 4.0.0.2 - RELEASE -


 With contributions from (in alphabetic order):
   Daniel Aravena         : Magnetic Properties
   Michael Atanasov       : Ab Initio Ligand Field Theory
   Ute Becker             : Parallelization
   Martin Brehm           : Molecular dynamics
   Dmytro Bykov           : SCF Hessian
   Vijay G. Chilkuri      : MRCI spin determinant printing
   Dipayan Datta          : RHF DLPNO-CCSD density
   Achintya Kumar Dutta   : EOM-CC, STEOM-CC
   Dmitry Ganyushin       : Spin-Orbit,Spin-Spin,Magnetic field MRCI
   Yang Guo               : DLPNO-NEVPT2, CIM, IAO-localization
   Andreas Hansen         : Spin unrestricted coupled pair/coupled cluster methods
   Lee Huntington         : MR-EOM, pCC
   Robert Izsak           : Overlap fitted RIJCOSX, COSX-SCS-MP3, EOM
   Christian Kollmar      : KDIIS, OOCD, Brueckner-CCSD(T), CCSD density
   Simone Kossmann        : Meta GGA functionals, TD-DFT gradient, OOMP2, MP2 Hessian
   Martin Krupicka        : AUTO-CI
   Dagmar Lenk            : GEPOL surface
   Dimitrios Liakos       : Extrapolation schemes; parallel MDCI
   Dimitrios Manganas     : ROCIS; embedding schemes
   Dimitrios Pantazis     : SARC Basis sets
   Taras Petrenko         : DFT Hessian,TD-DFT gradient, ASA, ECA, R-Raman, ABS, FL, XAS/XES, NRVS
   Peter Pinski           : DLPNO-MP2
   Christoph Reimann      : Effective Core Potentials
   Marius Retegan         : Local ZFS, SOC
   Christoph Riplinger    : Optimizer, TS searches, QM/MM, DLPNO-CCSD(T), (RO)-DLPNO pert. Triples
   Tobias Risthaus        : Range-separated hybrids, TD-DFT gradient, RPA, STAB
   Michael Roemelt        : Restricted open shell CIS
   Masaaki Saitow         : Open-shell DLPNO
   Barbara Sandhoefer     : DKH picture change effects
   Kantharuban Sivalingam : CASSCF convergence, NEVPT2, FIC-MRCI
   Georgi Stoychev        : AutoAux
   Boris Wezisla          : Elementary symmetry handling
   Frank Wennmohs         : Technical directorship


 We gratefully acknowledge several colleagues who have allowed us to
 interface, adapt or use parts of their codes:
   Stefan Grimme, W. Hujo, H. Kruse,             : VdW corrections, initial TS optimization,
                  C. Bannwarth                     DFT functionals, gCP, sTDA/sTD-DF
   Ed Valeev                                     : LibInt (2-el integral package), F12 methods
   Garnet Chan, S. Sharma, J. Yang, R. Olivares  : DMRG
   Ulf Ekstrom                                   : XCFun DFT Library
   Mihaly Kallay                                 : mrcc  (arbitrary order and MRCC methods)
   Jiri Pittner, Ondrej Demel                    : Mk-CCSD
   Frank Weinhold                                : gennbo (NPA and NBO analysis)
   Christopher J. Cramer and Donald G. Truhlar   : smd solvation model


 Your calculation uses the libint2 library for the computation of 2-el integrals
 For citations please refer to: http://libint.valeyev.net

 This ORCA versions uses:
   CBLAS   interface :  Fast vector & matrix operations
   LAPACKE interface :  Fast linear algebra routines
   SCALAPACK package :  Parallel linear algebra routines




*****************************************
The coordinations will be read from file: guess.xyz
*****************************************



Information: The global flag for chemical shieldings has been found
             ==>> will calculate the chemical shifts for all atoms in the system

Your calculation utilizes the basis: cc-pVDZ 
       H, B-Ne : Obtained from the ccRepo (grant-hill.group.shef.ac.uk/ccrepo) Feb. 2017
                 T. H. Dunning, Jr., J. Chem. Phys. 90, 1007 (1989)
            He : Obtained from the ccRepo (grant-hill.group.shef.ac.uk/ccrepo) Feb. 2017
                 D. E. Woon, T. H. Dunning, Jr., J. Chem. Phys. 100, 2975 (1994)
  Li-Be, Na-Mg : Obtained from the ccRepo (grant-hill.group.shef.ac.uk/ccrepo) Feb. 2017
                 B. P. Prascher, D. E. Woon, K. A. Peterson, T. H. Dunning, Jr., A. K. Wilson, Theor. Chem. Acc. 128, 69 (2011)
         Al-Ar : Obtained from the ccRepo (grant-hill.group.shef.ac.uk/ccrepo) Feb. 2017
                 D. E. Woon, T. H. Dunning, Jr., J. Chem. Phys. 98, 1358 (1993)
            Ca : Obtained from the Peterson Research Group Website (tyr0.chem.wsu.edu/~kipeters) Feb. 2017
                 J. Koput, K. A. Peterson, J. Phys. Chem. 106, 9595 (2002)
         Sc-Zn : Obtained from the ccRepo (grant-hill.group.shef.ac.uk/ccrepo) Feb. 2017
                 N. B. Balabanov, K. A. Peterson, J. Chem. Phys. 123, 064107 (2005)
                 N. B. Balabanov, K. A. Peterson, J. Chem. Phys. 125, 074110 (2006)
         Ga-Kr : Obtained from the ccRepo (grant-hill.group.shef.ac.uk/ccrepo) Feb. 2017
                 A. K. Wilson, D. E. Woon, K. A. Peterson, T. H. Dunning, Jr., J. Chem. Phys. 110, 7667 (1999)

Your calculation utilizes the auxiliary basis: def2/J
   F. Weigend, Phys. Chem. Chem. Phys. 8, 1057 (2006).

================================================================================
                                        WARNINGS
                       Please study these warnings very carefully!
================================================================================

Warning: TCutStore was < 0. Adjusted to Thresh (uncritical)

INFO   : the flag for use of LIBINT has been found!

CheckInput: checking for shifts: .
================================================================================
                                       INPUT FILE
================================================================================
NAME = /home/jan/SoftwareDevelopment/karminus/output/olyp_ccpvdz/acetonitrile/acetonitrile.in
|  1> !cc-pvdz OLYP NMR
|  2> 
|  3> *xyzfile 0 1 guess.xyz
|  4> 
|  5> 
|  6>                          ****END OF INPUT****
================================================================================

                       ****************************
                       * Single Point Calculation *
                       ****************************

---------------------------------
CARTESIAN COORDINATES (ANGSTROEM)
---------------------------------
  C    -16.099780    3.119650    8.933150
  C    -15.552520    4.506190    8.923140
  H    -15.461950    2.410220    9.472710
  H    -16.222930    2.699550    7.928370
  H    -17.086290    3.045960    9.405450
  N    -15.124780    5.583490    8.914060

----------------------------
CARTESIAN COORDINATES (A.U.)
----------------------------
  NO LB      ZA    FRAG     MASS         X           Y           Z
   0 C     6.0000    0    12.011  -30.424175    5.895284   16.881207
   1 C     6.0000    0    12.011  -29.390003    8.515465   16.862291
   2 H     1.0000    0     1.008  -29.218851    4.554656   17.900828
   3 H     1.0000    0     1.008  -30.656895    5.101410   14.982448
   4 H     1.0000    0     1.008  -32.288409    5.756030   17.773725
   5 N     7.0000    0    14.007  -28.581692   10.551267   16.845132

--------------------------------
INTERNAL COORDINATES (ANGSTROEM)
--------------------------------
 C      0   0   0     0.000000000000     0.00000000     0.00000000
 C      1   0   0     1.490666588912     0.00000000     0.00000000
 H      1   2   0     1.096012329949   113.06184767     0.00000000
 H      1   2   3     1.096007655493   113.05537516   240.10042607
 H      1   2   3     1.096220546332   113.31598420   120.05263761
 N      2   1   3     1.159145911437   179.86698049    60.94985710

---------------------------
INTERNAL COORDINATES (A.U.)
---------------------------
 C      0   0   0     0.000000000000     0.00000000     0.00000000
 C      1   0   0     2.816951610031     0.00000000     0.00000000
 H      1   2   0     2.071163143004   113.06184767     0.00000000
 H      1   2   3     2.071154309564   113.05537516   240.10042607
 H      1   2   3     2.071556614945   113.31598420   120.05263761
 N      2   1   3     2.190468321870   179.86698049    60.94985710

---------------------
BASIS SET INFORMATION
---------------------
There are 3 groups of distinct atoms

 Group   1 Type C   : 17s4p1d contracted to 3s2p1d pattern {881/31/1}
 Group   2 Type H   : 4s1p contracted to 2s1p pattern {31/1}
 Group   3 Type N   : 17s4p1d contracted to 3s2p1d pattern {881/31/1}

Atom   0C    basis set group =>   1
Atom   1C    basis set group =>   1
Atom   2H    basis set group =>   2
Atom   3H    basis set group =>   2
Atom   4H    basis set group =>   2
Atom   5N    basis set group =>   3
-------------------------------
AUXILIARY BASIS SET INFORMATION
-------------------------------
There are 3 groups of distinct atoms

 Group   1 Type C   : 12s5p4d2f1g contracted to 6s4p3d1f1g pattern {711111/2111/211/2/1}
 Group   2 Type H   : 5s2p1d contracted to 3s1p1d pattern {311/2/1}
 Group   3 Type N   : 12s5p4d2f1g contracted to 6s4p3d1f1g pattern {711111/2111/211/2/1}

Atom   0C    basis set group =>   1
Atom   1C    basis set group =>   1
Atom   2H    basis set group =>   2
Atom   3H    basis set group =>   2
Atom   4H    basis set group =>   2
Atom   5N    basis set group =>   3
------------------------------------------------------------------------------
                           ORCA GTO INTEGRAL CALCULATION
                           -- RI-GTO INTEGRALS CHOSEN --
------------------------------------------------------------------------------

                         BASIS SET STATISTICS AND STARTUP INFO

Gaussian basis set:
 # of primitive gaussian shells          ...   81
 # of primitive gaussian functions       ...  123
 # of contracted shells                  ...   27
 # of contracted basis functions         ...   57
 Highest angular momentum                ...    2
 Maximum contraction depth               ...    8
Auxiliary gaussian basis set:
 # of primitive gaussian shells          ...   96
 # of primitive gaussian functions       ...  258
 # of contracted shells                  ...   60
 # of contracted aux-basis functions     ...  180
 Highest angular momentum                ...    4
 Maximum contraction depth               ...    7
Ratio of auxiliary to basis functions    ...  3.16
Integral package used                  ... LIBINT
 One Electron integrals                  ... done
 Ordering auxiliary basis shells         ... done
 Integral threshhold             Thresh  ...  1.000e-10
 Primitive cut-off               TCut    ...  1.000e-11
 Pre-screening matrix                    ... done
 Shell pair data                         ... 
 Ordering of the shell pairs             ... done (   0.000 sec) 378 of 378 pairs
 Determination of significant pairs      ... done (   0.000 sec)
 Creation of shell pair data             ... done (   0.000 sec)
 Storage of shell pair data              ... done (   0.000 sec)
 Shell pair data done in (   0.001 sec)
 Computing two index integrals           ... done
 Cholesky decomposition of the V-matrix  ... done


Timings:
 Total evaluation time                   ...   0.115 sec (  0.002 min)
 One electron matrix time                ...   0.006 sec (  0.000 min) =  5.3%
 Schwartz matrix evaluation time         ...   0.091 sec (  0.002 min) = 78.6%
 Two index repulsion integral time       ...   0.001 sec (  0.000 min) =  0.9%
 Cholesky decomposition of V             ...   0.000 sec (  0.000 min) =  0.4%
 Three index repulsion integral time     ...   0.000 sec (  0.000 min) =  0.0%

-------------------------------------------------------------------------------
                                 ORCA SCF
-------------------------------------------------------------------------------

------------
SCF SETTINGS
------------
Hamiltonian:
 Density Functional     Method          .... DFT(GTOs)
 Exchange Functional    Exchange        .... OPTX
 Correlation Functional Correlation     .... LYP
 Gradients option       PostSCFGGA      .... off
 RI-approximation to the Coulomb term is turned on
   Number of auxiliary basis functions  .... 180


General Settings:
 Integral files         IntName         .... /home/jan/SoftwareDevelopment/karminus/output/olyp_ccpvdz/acetonitrile/acetonitrile
 Hartree-Fock type      HFTyp           .... RHF
 Total Charge           Charge          ....    0
 Multiplicity           Mult            ....    1
 Number of Electrons    NEL             ....   22
 Basis Dimension        Dim             ....   57
 Nuclear Repulsion      ENuc            ....     57.7594011092 Eh

Convergence Acceleration:
 DIIS                   CNVDIIS         .... on
   Start iteration      DIISMaxIt       ....    12
   Startup error        DIISStart       ....  0.200000
   # of expansion vecs  DIISMaxEq       ....     5
   Bias factor          DIISBfac        ....   1.050
   Max. coefficient     DIISMaxC        ....  10.000
 Newton-Raphson         CNVNR           .... off
 SOSCF                  CNVSOSCF        .... on
   Start iteration      SOSCFMaxIt      ....   150
   Startup grad/error   SOSCFStart      ....  0.003300
 Level Shifting         CNVShift        .... on
   Level shift para.    LevelShift      ....    0.2500
   Turn off err/grad.   ShiftErr        ....    0.0010
 Zerner damping         CNVZerner       .... off
 Static damping         CNVDamp         .... on
   Fraction old density DampFac         ....    0.7000
   Max. Damping (<1)    DampMax         ....    0.9800
   Min. Damping (>=0)   DampMin         ....    0.0000
   Turn off err/grad.   DampErr         ....    0.1000
 Fernandez-Rico         CNVRico         .... off

SCF Procedure:
 Maximum # iterations   MaxIter         ....   125
 SCF integral mode      SCFMode         .... Direct
   Integral package                     .... LIBINT
 Reset frequeny         DirectResetFreq ....    20
 Integral Threshold     Thresh          ....  1.000e-10 Eh
 Primitive CutOff       TCut            ....  1.000e-11 Eh

Convergence Tolerance:
 Convergence Check Mode ConvCheckMode   .... Total+1el-Energy
 Convergence forced     ConvForced      .... 0
 Energy Change          TolE            ....  1.000e-06 Eh
 1-El. energy change                    ....  1.000e-03 Eh
 Orbital Gradient       TolG            ....  5.000e-05
 Orbital Rotation angle TolX            ....  5.000e-05
 DIIS Error             TolErr          ....  1.000e-06


Diagonalization of the overlap matrix:
Smallest eigenvalue                        ... 3.759e-03
Time for diagonalization                   ...    0.001 sec
Threshold for overlap eigenvalues          ... 1.000e-08
Number of eigenvalues below threshold      ... 0
Time for construction of square roots      ...    0.000 sec
Total time needed                          ...    0.001 sec

-------------------
DFT GRID GENERATION
-------------------

General Integration Accuracy     IntAcc      ...  4.340
Radial Grid Type                 RadialGrid  ... Gauss-Chebyshev
Angular Grid (max. acc.)         AngularGrid ... Lebedev-110
Angular grid pruning method      GridPruning ... 3 (G Style)
Weight generation scheme         WeightScheme... Becke
Basis function cutoff            BFCut       ...    1.0000e-10
Integration weight cutoff        WCut        ...    1.0000e-14
Grids for H and He will be reduced by one unit

# of grid points (after initial pruning)     ...   7396 (   0.0 sec)
# of grid points (after weights+screening)   ...   7222 (   0.0 sec)
nearest neighbour list constructed           ...    0.0 sec
Grid point re-assignment to atoms done       ...    0.0 sec
Grid point division into batches done        ...    0.0 sec
Reduced shell lists constructed in    0.1 sec

Total number of grid points                  ...     7222
Total number of batches                      ...      117
Average number of points per batch           ...       61
Average number of grid points per atom       ...     1204
Average number of shells per batch           ...    23.66 (87.63%)
Average number of basis functions per batch  ...    49.51 (86.86%)
Average number of large shells per batch     ...    20.65 (87.29%)
Average number of large basis fcns per batch ...    43.13 (87.11%)
Maximum spatial batch extension              ...  26.64, 25.60, 19.31 au
Average spatial batch extension              ...   4.82,  4.62,  4.74 au

Time for grid setup =    0.081 sec

------------------------------
INITIAL GUESS: MODEL POTENTIAL
------------------------------
Loading Hartree-Fock densities                     ... done
Calculating cut-offs                               ... done
Setting up the integral package                    ... done
Initializing the effective Hamiltonian             ... done
Starting the Coulomb interaction                   ... done (   0.0 sec)
Reading the grid                                   ... done
Mapping shells                                     ... done
Starting the XC term evaluation                    ... done (   0.1 sec)
  promolecular density results
     # of electrons  =     21.997800545
     EX              =    -17.632479853
     EC              =     -0.714392429
     EX+EC           =    -18.346872282
Transforming the Hamiltonian                       ... done (   0.0 sec)
Diagonalizing the Hamiltonian                      ... done (   0.0 sec)
Back transforming the eigenvectors                 ... done (   0.0 sec)
Now organizing SCF variables                       ... done
                      ------------------
                      INITIAL GUESS DONE (   0.3 sec)
                      ------------------
--------------
SCF ITERATIONS
--------------
ITER       Energy         Delta-E        Max-DP      RMS-DP      [F,P]     Damp
               ***  Starting incremental Fock matrix formation  ***
  0   -132.6108867122   0.000000000000 0.09089246  0.00532129  0.2556380 0.7000
  1   -132.6688388571  -0.057952144863 0.04911746  0.00319760  0.0721754 0.7000
                               ***Turning on DIIS***
  2   -132.6817986061  -0.012959749036 0.05024306  0.00419489  0.0413701 0.0000
  3   -132.7135531382  -0.031754532078 0.03343018  0.00247527  0.0420716 0.0000
  4   -132.7168748140  -0.003321675749 0.01305866  0.00078303  0.0472915 0.0000
  5   -132.7189182659  -0.002043451926 0.00488490  0.00028193  0.0144567 0.0000
  6   -132.7191076202  -0.000189354346 0.00123933  0.00007909  0.0038428 0.0000
                      *** Initiating the SOSCF procedure ***
                           *** Shutting down DIIS ***
                      *** Re-Reading the Fockian *** 
                      *** Removing any level shift *** 
ITER      Energy       Delta-E        Grad      Rot      Max-DP    RMS-DP
  7   -132.71912108  -0.0000134561  0.000131  0.000131  0.000593  0.000033
               *** Restarting incremental Fock matrix formation ***
  8   -132.71912192  -0.0000008420  0.000109  0.000267  0.000488  0.000021
                 **** Energy Check signals convergence ****
              ***Rediagonalizing the Fockian in SOSCF/NRSCF***

               *****************************************************
               *                     SUCCESS                       *
               *           SCF CONVERGED AFTER   9 CYCLES          *
               *****************************************************

Setting up the final grid:

General Integration Accuracy     IntAcc      ...  4.670
Radial Grid Type                 RadialGrid  ... Gauss-Chebyshev
Angular Grid (max. acc.)         AngularGrid ... Lebedev-302
Angular grid pruning method      GridPruning ... 3 (G Style)
Weight generation scheme         WeightScheme... Becke
Basis function cutoff            BFCut       ...    1.0000e-10
Integration weight cutoff        WCut        ...    1.0000e-14
Grids for H and He will be reduced by one unit

# of grid points (after initial pruning)     ...  28818 (   0.0 sec)
# of grid points (after weights+screening)   ...  27933 (   0.0 sec)
nearest neighbour list constructed           ...    0.0 sec
Grid point re-assignment to atoms done       ...    0.0 sec
Grid point division into batches done        ...    0.1 sec
Reduced shell lists constructed in    0.4 sec

Total number of grid points                  ...    27933
Total number of batches                      ...      440
Average number of points per batch           ...       63
Average number of grid points per atom       ...     4656
Average number of shells per batch           ...    21.88 (81.03%)
Average number of basis functions per batch  ...    45.61 (80.03%)
Average number of large shells per batch     ...    18.79 (85.90%)
Average number of large basis fcns per batch ...    39.23 (86.00%)
Maximum spatial batch extension              ...  20.40, 18.41, 19.27 au
Average spatial batch extension              ...   3.17,  3.16,  3.20 au

Final grid set up in    0.4 sec
Final integration                            ... done (   0.3 sec)
Change in XC energy                          ...    -0.000021884
Integrated number of electrons               ...    21.999999860
Previous integrated no of electrons          ...    21.999133488

----------------
TOTAL SCF ENERGY
----------------

Total Energy       :         -132.71914339 Eh           -3611.47150 eV

Components:
Nuclear Repulsion  :           57.75940111 Eh            1571.71321 eV
Electronic Energy  :         -190.47854450 Eh           -5183.18470 eV
One Electron Energy:         -292.28878753 Eh           -7953.58226 eV
Two Electron Energy:          101.81024303 Eh            2770.39756 eV

Virial components:
Potential Energy   :         -264.55771595 Eh           -7198.98144 eV
Kinetic Energy     :          131.83857256 Eh            3587.50994 eV
Virial Ratio       :            2.00667916


DFT components:
N(Alpha)           :       10.999999930106 electrons
N(Beta)            :       10.999999930106 electrons
N(Total)           :       21.999999860211 electrons
E(X)               :      -18.040921554483 Eh       
E(C)               :       -0.721630801188 Eh       
E(XC)              :      -18.762552355671 Eh       

---------------
SCF CONVERGENCE
---------------

  Last Energy change         ...    4.1015e-07  Tolerance :   1.0000e-06
  Last MAX-Density change    ...    3.2359e-04  Tolerance :   1.0000e-05
  Last RMS-Density change    ...    1.5561e-05  Tolerance :   1.0000e-06
  Last Orbital Gradient      ...    2.7647e-04  Tolerance :   5.0000e-05
  Last Orbital Rotation      ...    2.5607e-04  Tolerance :   5.0000e-05

             **** THE GBW FILE WAS UPDATED (/home/jan/SoftwareDevelopment/karminus/output/olyp_ccpvdz/acetonitrile/acetonitrile.gbw) ****
             **** DENSITY FILE WAS UPDATED (/home/jan/SoftwareDevelopment/karminus/output/olyp_ccpvdz/acetonitrile/acetonitrile.scfp.tmp) ****
             **** ENERGY FILE WAS UPDATED (/home/jan/SoftwareDevelopment/karminus/output/olyp_ccpvdz/acetonitrile/acetonitrile.en.tmp) ****
----------------
ORBITAL ENERGIES
----------------

  NO   OCC          E(Eh)            E(eV) 
   0   2.0000     -14.004234      -381.0746 
   1   2.0000      -9.968784      -271.2644 
   2   2.0000      -9.952927      -270.8329 
   3   2.0000      -0.823610       -22.4116 
   4   2.0000      -0.699839       -19.0436 
   5   2.0000      -0.467617       -12.7245 
   6   2.0000      -0.402793       -10.9605 
   7   2.0000      -0.402653       -10.9567 
   8   2.0000      -0.301862        -8.2141 
   9   2.0000      -0.285074        -7.7572 
  10   2.0000      -0.285012        -7.7556 
  11   0.0000       0.004873         0.1326 
  12   0.0000       0.005255         0.1430 
  13   0.0000       0.022090         0.6011 
  14   0.0000       0.099970         2.7203 
  15   0.0000       0.101021         2.7489 
  16   0.0000       0.137698         3.7470 
  17   0.0000       0.241182         6.5629 
  18   0.0000       0.406614        11.0645 
  19   0.0000       0.408377        11.1125 
  20   0.0000       0.466394        12.6912 
  21   0.0000       0.512025        13.9329 
  22   0.0000       0.512878        13.9561 
  23   0.0000       0.565266        15.3817 
  24   0.0000       0.566264        15.4088 
  25   0.0000       0.583505        15.8780 
  26   0.0000       0.656560        17.8659 
  27   0.0000       0.737170        20.0594 
  28   0.0000       0.791264        21.5314 
  29   0.0000       0.791454        21.5366 
  30   0.0000       0.893517        24.3138 
  31   0.0000       0.893706        24.3190 
  32   0.0000       0.966611        26.3028 
  33   0.0000       1.047515        28.5043 
  34   0.0000       1.047839        28.5132 
  35   0.0000       1.239574        33.7305 
  36   0.0000       1.320112        35.9221 
  37   0.0000       1.321546        35.9611 
  38   0.0000       1.338479        36.4219 
  39   0.0000       1.453280        39.5458 
  40   0.0000       1.574549        42.8456 
  41   0.0000       1.577280        42.9200 
  42   0.0000       1.647952        44.8430 
  43   0.0000       1.708122        46.4804 
  44   0.0000       1.709070        46.5062 
  45   0.0000       1.824027        49.6343 
  46   0.0000       1.824252        49.6404 
  47   0.0000       1.931923        52.5703 
  48   0.0000       2.030875        55.2629 
  49   0.0000       2.031252        55.2732 
  50   0.0000       2.288457        62.2721 
  51   0.0000       2.319069        63.1051 
  52   0.0000       2.319562        63.1185 
  53   0.0000       2.628925        71.5367 
  54   0.0000       2.629522        71.5529 
  55   0.0000       2.633575        71.6632 
  56   0.0000       2.760012        75.1037 

                    ********************************
                    * MULLIKEN POPULATION ANALYSIS *
                    ********************************

-----------------------
MULLIKEN ATOMIC CHARGES
-----------------------
   0 C :    0.057703
   1 C :   -0.096264
   2 H :    0.060862
   3 H :    0.058230
   4 H :    0.058032
   5 N :   -0.138562
Sum of atomic charges:   -0.0000000

--------------------------------
MULLIKEN REDUCED ORBITAL CHARGES
--------------------------------
  0 C s       :     2.988447  s :     2.988447
      pz      :     1.002806  p :     2.913576
      px      :     0.992578
      py      :     0.918192
      dz2     :     0.005516  d :     0.040274
      dxz     :     0.004230
      dyz     :     0.009887
      dx2y2   :     0.010507
      dxy     :     0.010134
  1 C s       :     3.128339  s :     3.128339
      pz      :     0.947902  p :     2.887367
      px      :     0.954438
      py      :     0.985027
      dz2     :     0.005630  d :     0.080559
      dxz     :     0.003923
      dyz     :     0.025206
      dx2y2   :     0.022532
      dxy     :     0.023267
  2 H s       :     0.906390  s :     0.906390
      pz      :     0.010518  p :     0.032748
      px      :     0.011157
      py      :     0.011073
  3 H s       :     0.908985  s :     0.908985
      pz      :     0.018114  p :     0.032785
      px      :     0.007285
      py      :     0.007386
  4 H s       :     0.909184  s :     0.909184
      pz      :     0.009776  p :     0.032784
      px      :     0.017836
      py      :     0.005172
  5 N s       :     3.640016  s :     3.640016
      pz      :     1.045013  p :     3.460342
      px      :     1.088684
      py      :     1.326644
      dz2     :     0.003324  d :     0.038204
      dxz     :     0.001696
      dyz     :     0.010760
      dx2y2   :     0.011137
      dxy     :     0.011286


                     *******************************
                     * LOEWDIN POPULATION ANALYSIS *
                     *******************************

----------------------
LOEWDIN ATOMIC CHARGES
----------------------
   0 C :   -0.078940
   1 C :   -0.086086
   2 H :    0.057057
   3 H :    0.056536
   4 H :    0.056694
   5 N :   -0.005261

-------------------------------
LOEWDIN REDUCED ORBITAL CHARGES
-------------------------------
  0 C s       :     2.804574  s :     2.804574
      pz      :     1.065551  p :     3.129725
      px      :     1.056970
      py      :     1.007204
      dz2     :     0.024628  d :     0.144642
      dxz     :     0.019576
      dyz     :     0.031808
      dx2y2   :     0.035463
      dxy     :     0.033166
  1 C s       :     2.916035  s :     2.916035
      pz      :     0.913163  p :     2.954850
      px      :     0.942783
      py      :     1.098904
      dz2     :     0.021545  d :     0.215200
      dxz     :     0.008705
      dyz     :     0.055905
      dx2y2   :     0.064590
      dxy     :     0.064455
  2 H s       :     0.862142  s :     0.862142
      pz      :     0.024942  p :     0.080801
      px      :     0.027500
      py      :     0.028359
  3 H s       :     0.862670  s :     0.862670
      pz      :     0.044392  p :     0.080794
      px      :     0.017095
      py      :     0.019307
  4 H s       :     0.862624  s :     0.862624
      pz      :     0.023054  p :     0.080683
      px      :     0.043274
      py      :     0.014355
  5 N s       :     3.379541  s :     3.379541
      pz      :     1.038038  p :     3.551664
      px      :     1.097080
      py      :     1.416546
      dz2     :     0.009320  d :     0.074057
      dxz     :     0.002505
      dyz     :     0.015884
      dx2y2   :     0.023451
      dxy     :     0.022896


                      *****************************
                      * MAYER POPULATION ANALYSIS *
                      *****************************

  NA   - Mulliken gross atomic population
  ZA   - Total nuclear charge
  QA   - Mulliken gross atomic charge
  VA   - Mayer's total valence
  BVA  - Mayer's bonded valence
  FA   - Mayer's free valence

  ATOM       NA         ZA         QA         VA         BVA        FA
  0 C      5.9423     6.0000     0.0577     3.9507     3.9507    -0.0000
  1 C      6.0963     6.0000    -0.0963     4.3049     4.3049     0.0000
  2 H      0.9391     1.0000     0.0609     0.9748     0.9748    -0.0000
  3 H      0.9418     1.0000     0.0582     0.9749     0.9749    -0.0000
  4 H      0.9420     1.0000     0.0580     0.9754     0.9754    -0.0000
  5 N      7.1386     7.0000    -0.1386     3.2379     3.2379     0.0000

  Mayer bond orders larger than 0.1
B(  0-C ,  1-C ) :   1.0913 B(  0-C ,  2-H ) :   0.9445 B(  0-C ,  3-H ) :   0.9446 
B(  0-C ,  4-H ) :   0.9443 B(  1-C ,  5-N ) :   3.1538 

-------
TIMINGS
-------

Total SCF time: 0 days 0 hours 0 min 3 sec 

Total time                  ....       3.738 sec
Sum of individual times     ....       3.531 sec  ( 94.4%)

Fock matrix formation       ....       2.824 sec  ( 75.5%)
  Split-RI-J                ....       1.190 sec  ( 42.2% of F)
  XC integration            ....       1.151 sec  ( 40.8% of F)
    Basis function eval.    ....       0.789 sec  ( 68.6% of XC)
    Density eval.           ....       0.147 sec  ( 12.8% of XC)
    XC-Functional eval.     ....       0.047 sec  (  4.1% of XC)
    XC-Potential eval.      ....       0.146 sec  ( 12.7% of XC)
Diagonalization             ....       0.008 sec  (  0.2%)
Density matrix formation    ....       0.000 sec  (  0.0%)
Population analysis         ....       0.001 sec  (  0.0%)
Initial guess               ....       0.193 sec  (  5.2%)
Orbital Transformation      ....       0.000 sec  (  0.0%)
Orbital Orthonormalization  ....       0.000 sec  (  0.0%)
DIIS solution               ....       0.002 sec  (  0.1%)
SOSCF solution              ....       0.001 sec  (  0.0%)
Grid generation             ....       0.502 sec  ( 13.4%)

-------------------------   --------------------
FINAL SINGLE POINT ENERGY      -132.719143392121
-------------------------   --------------------


                            ***************************************
                            *     ORCA property calculations      *
                            ***************************************

                                    ---------------------
                                    Active property flags
                                    ---------------------
   (+) Dipole Moment
   (+) Chemical Shifts


------------------------------------------------------------------------------
                       ORCA ELECTRIC PROPERTIES CALCULATION
------------------------------------------------------------------------------

Dipole Moment Calculation                       ... on
Quadrupole Moment Calculation                   ... off
Polarizability Calculation                      ... off
GBWName                                         ... /home/jan/SoftwareDevelopment/karminus/output/olyp_ccpvdz/acetonitrile/acetonitrile.gbw
Electron density file                           ... /home/jan/SoftwareDevelopment/karminus/output/olyp_ccpvdz/acetonitrile/acetonitrile.scfp.tmp

-------------
DIPOLE MOMENT
-------------
                                X             Y             Z
Electronic contribution:      1.26480       3.20869      -0.02198
Nuclear contribution   :     -1.79427      -4.54659       0.03267
                        -----------------------------------------
Total Dipole Moment    :     -0.52947      -1.33790       0.01069
                        -----------------------------------------
Magnitude (a.u.)       :      1.43890
Magnitude (Debye)      :      3.65739

------------------------------------------------------------------------------
                                ORCA EPR/NMR CALCULATION
------------------------------------------------------------------------------

GBWName                      ... /home/jan/SoftwareDevelopment/karminus/output/olyp_ccpvdz/acetonitrile/acetonitrile.gbw
Electron density file        ... /home/jan/SoftwareDevelopment/karminus/output/olyp_ccpvdz/acetonitrile/acetonitrile.scfp.tmp
Spin density file            ... /home/jan/SoftwareDevelopment/karminus/output/olyp_ccpvdz/acetonitrile/acetonitrile.scfr.tmp
Treatment of gauge           ... GIAO (approximations 1/2el = 0,3)
Details of the CP(SCF) procedure:
       Solver   = POPLE   
       MaxIter  =    64   
       Tolerance=    1.000e-06
       Op-0     =   0- 10 =>  11- 56
Multiplicity                 ... 1
g-tensor                     ... 0
NMR chemical shifts          ... 1
Number of nuclei for epr/nmr ... 6
   Nucleus:   0C 
       Hyperfine : Isotope=   13 I=   0.500 P= 134.188
       Quadrupole: Isotope=   13 I=   0.500 Q=   0.000
       Spin-Orbit: Zeff=   3.600
       rho(0)=N f(grad)=N a(iso)=N a(dip)=N a(orb)=N sigma(nmr)=Y
   Nucleus:   1C 
       Hyperfine : Isotope=   13 I=   0.500 P= 134.188
       Quadrupole: Isotope=   13 I=   0.500 Q=   0.000
       Spin-Orbit: Zeff=   3.600
       rho(0)=N f(grad)=N a(iso)=N a(dip)=N a(orb)=N sigma(nmr)=Y
   Nucleus:   2H 
       Hyperfine : Isotope=    1 I=   0.500 P= 533.552
       Quadrupole: Isotope=    2 I=   1.000 Q=   0.003
       Spin-Orbit: Zeff=   1.000
       rho(0)=N f(grad)=N a(iso)=N a(dip)=N a(orb)=N sigma(nmr)=Y
   Nucleus:   3H 
       Hyperfine : Isotope=    1 I=   0.500 P= 533.552
       Quadrupole: Isotope=    2 I=   1.000 Q=   0.003
       Spin-Orbit: Zeff=   1.000
       rho(0)=N f(grad)=N a(iso)=N a(dip)=N a(orb)=N sigma(nmr)=Y
   Nucleus:   4H 
       Hyperfine : Isotope=    1 I=   0.500 P= 533.552
       Quadrupole: Isotope=    2 I=   1.000 Q=   0.003
       Spin-Orbit: Zeff=   1.000
       rho(0)=N f(grad)=N a(iso)=N a(dip)=N a(orb)=N sigma(nmr)=Y
   Nucleus:   5N 
       Hyperfine : Isotope=   14 I=   1.000 P=  38.571
       Quadrupole: Isotope=   14 I=   1.000 Q=   0.020
       Spin-Orbit: Zeff=   4.550
       rho(0)=N f(grad)=N a(iso)=N a(dip)=N a(orb)=N sigma(nmr)=Y
Using LibInt in CPSCF-CP

Forming RHS of the CP-SCF equations         ... 
Calculating right hand sides for GIAO treatment (new)  ... 
  Entering RightHandSide GIAO. ScalHFX=    0.0000 NeedHFX=0
     -> 1-electron GIAO integrals will be done analytically
     -> RI used in SCF and no Fock exchange. RIJK enforced by the user
     Making grid for GIAO integrations   ... done
     Test of existence of the V matrix   = 1
     Test of existence of the VCD matrix = 1
     Test of existence of the VO matrix  = 0
     Warning: RI is turned on for GIAO but the V matrix or its Cholesky decomposition are not found - making it
     Calculating V           ... done
     Cholesky decomposition  ... done
     Storing V and VCD       ... done
     Cholesky decomposition-2... done
     Storing VO              ... done
  Getting the pre-screening matrix        ... done
  Extracting occupied and virtual blocks  ... 
  Operator  0  NO=  11 NV=  46 
  One-electron GIAO integrals             ...   done
  Transforming and RHS contribution       ...   done
  Calculating F[B](P)                     ...  (RI-JK)
---------------------
RI-GIAO-TRANSFORMATION (AUX index driven)
----------------------

Dimension of the orbital-basis         ... 57
Dimension of the aux-basis             ... 180
Number of (i,a) MOs                    ... 11,46
Number of ij,ia,ab pairs               ... 121,506,2116
Transformation of internal MOs         ...    0-  10
Transformation of internal/external MOs...    0-  10 to   11-  56

Mapping shells                                 ... done
Making shell addresses                         ... done
Figuring out significant basis function pairs  ... done
  N(Pairs)         ... 1653
  N(Strong pairs)  ... 1653
  Mem-Available    ... 1024 MB
  (p,q) per batch  ... 93204
  N(Batches)       ... 1
Preparing matrix containers                    ... done
Preparing AO buffer                            ... done
Calculating AO integrals and transforming AUX  ... done
Finished RI-GIAO integral generation and aux-index transformation in  0.673 sec
Mapping the MO pairs                            ... done
Getting memory                                  ... done
Second Phase: sorting and transformation of MO indices
Memory available                       ... 1024 MB 
Max. # Aux fcns treated in a batch     ... 180    
Initializing the MO transformation process      ... done
Batch   0: Q=   0 ...  179
   Reading      ... done
   Transforming ... done
Finished transformation of the MO indices in  0.056 sec
Initializing the sorting process                ... done

IJ-Resorting
# of internal pairs                    ... 121
# batches for internal pairs           ... 1
   (0) Reading      ... done
   (0) Writing      ... done
   (1) Reading      ... done
   (1) Writing      ... done
   (2) Reading      ... done
   (2) Writing      ... done
   (3) Reading      ... done
   (3) Writing      ... done
(ij|v) resorting done in     0.002 sec

IA-Resorting
# of internal orbitals                 ... 11
# batches for internal orbitals        ... 1
   (0) Reading      ... done
   (0) Writing      ... done
   (1) Reading      ... done
   (1) Writing      ... done
   (2) Reading      ... done
   (2) Writing      ... done
   (3) Reading      ... done
   (3) Writing      ... done
(ia|v) resorting done in     0.003 sec

  Resorting completed in     0.005 sec
RI-GIAO-Integral transformation completed in     0.779 sec
Reading RI-integrals ... done
Doing RI-JK          ... done
 => dG/dB done
  RI-JK GIAO contributions                ...   done
  DFT XC-terms                            ... done
  Transforming to MO basis/RHS contribs.  ... done
  GIAO profiling information: 
    Total GIAO time               ...       1.2 sec
       Grid setup                 ...       0.1 sec (  6.6%)
       RI-V-matrix setup          ...       0.0 sec (  2.9%)
       GIAO 1-electron integrals  ...       0.0 sec (  1.8%)
       GIAO RI-JK                 ...       0.1 sec (  7.8%)
       GIAO RI integral trafo     ...       0.8 sec ( 66.6%)
       GIAO XC-terms              ...       0.2 sec ( 14.3%)

  GIAO right hand side done


Forming final perturbed densities           ... done
Transforming perturbed density to AO basis  ...  done

Magnetic field perturbation calculated in  1.240 sec

---------------
CHEMICAL SHIFTS
---------------

Note: using conversion factor for au to ppm alpha^2/2 =   26.625677252 
Doing GIAO para- and diamagnetic shielding integrals analytically     ...done
Doing remaining GIAO terms numerically                                ...done
 --------------
 Nucleus   0C :
 --------------

Diamagnetic contribution to the shielding tensor (ppm) : 
           255.781         -1.777        -3.600
            32.109        238.894       -17.774
             5.362         -1.553       246.220

Paramagnetic contribution to the shielding tensor (ppm): 
           -72.647         11.204         3.514
           -22.795        -34.968        17.791
            -5.409          1.664       -66.640

Total shielding tensor (ppm): 
           183.134          9.427        -0.085
             9.314        203.926         0.017
            -0.047          0.111       179.580


 Diagonalized sT*s matrix:
 
 sDSO           248.607          241.094          251.194  iso=     246.965
 sPSO           -69.138          -61.449          -43.669  iso=     -58.085
        ---------------  ---------------  ---------------
 Total          179.469          179.645          207.526  iso=     188.880

 --------------
 Nucleus   1C :
 --------------

Diamagnetic contribution to the shielding tensor (ppm) : 
           246.910         14.949         4.611
            -8.580        288.290        12.201
            -2.345          0.658       251.385

Paramagnetic contribution to the shielding tensor (ppm): 
          -215.026         86.704        -5.453
           110.156        -40.798       -14.334
             1.468         -2.784      -259.618

Total shielding tensor (ppm): 
            31.883        101.653        -0.842
           101.577        247.492        -2.133
            -0.877         -2.126        -8.233


 Diagonalized sT*s matrix:
 
 sDSO           251.661          250.182          284.743  iso=     262.195
 sPSO          -259.911         -258.641            3.109  iso=    -171.814
        ---------------  ---------------  ---------------
 Total           -8.250           -8.459          287.852  iso=      90.381

 --------------
 Nucleus   2H :
 --------------

Diamagnetic contribution to the shielding tensor (ppm) : 
             6.969          5.625        44.385
            21.308         33.631       -28.560
           -43.046         13.626       107.837

Paramagnetic contribution to the shielding tensor (ppm): 
            21.672         -6.975       -42.463
           -24.539         -0.386        24.909
            45.442        -16.153       -80.037

Total shielding tensor (ppm): 
            28.641         -1.351         1.922
            -3.231         33.246        -3.651
             2.396         -2.527        27.800


 Diagonalized sT*s matrix:
 
 sDSO            75.134           33.978           39.324  iso=      49.479
 sPSO           -49.309           -5.997           -3.444  iso=     -19.583
        ---------------  ---------------  ---------------
 Total           25.825           27.981           35.880  iso=      29.896

 --------------
 Nucleus   3H :
 --------------

Diamagnetic contribution to the shielding tensor (ppm) : 
            74.712        -14.470         1.526
             0.625         40.583        -2.618
            93.802        -27.448        37.780

Paramagnetic contribution to the shielding tensor (ppm): 
           -48.273         16.203         0.052
             1.068        -10.088         7.391
           -93.105         30.150        -5.028

Total shielding tensor (ppm): 
            26.439          1.733         1.578
             1.692         30.495         4.773
             0.697          2.702        32.752


 Diagonalized sT*s matrix:
 
 sDSO            79.796           33.889           39.390  iso=      51.025
 sPSO           -53.995           -5.926           -3.468  iso=     -21.130
        ---------------  ---------------  ---------------
 Total           25.801           27.963           35.922  iso=      29.895

 --------------
 Nucleus   4H :
 --------------

Diamagnetic contribution to the shielding tensor (ppm) : 
            14.912          5.090       -52.479
            15.907         -1.935         9.027
           -47.860         12.773       -61.953

Paramagnetic contribution to the shielding tensor (ppm): 
            18.649         -3.670        48.976
           -12.511         30.613       -10.189
            44.707        -12.964        89.373

Total shielding tensor (ppm): 
            33.561          1.420        -3.503
             3.396         28.678        -1.163
            -3.153         -0.191        27.420


 Diagonalized sT*s matrix:
 
 sDSO           -89.103            1.619           38.508  iso=     -16.325
 sPSO           115.008           26.264           -2.637  iso=      46.212
        ---------------  ---------------  ---------------
 Total           25.905           27.883           35.871  iso=      29.886

 --------------
 Nucleus   5N :
 --------------

Diamagnetic contribution to the shielding tensor (ppm) : 
           338.257          1.796         3.197
           -14.381        348.399         8.432
             0.680         -0.230       343.319

Paramagnetic contribution to the shielding tensor (ppm): 
          -429.917        159.782        -4.687
           176.195        -96.306       -11.799
            -2.014         -2.817      -499.549

Total shielding tensor (ppm): 
           -91.660        161.578        -1.490
           161.814        252.093        -3.368
            -1.334         -3.047      -156.229


 Diagonalized sT*s matrix:
 
 sDSO           343.822          343.532          342.621  iso=     343.325
 sPSO          -499.554         -499.819          -26.398  iso=    -341.924
        ---------------  ---------------  ---------------
 Total         -155.732         -156.288          316.223  iso=       1.401



--------------------------
CHEMICAL SHIELDING SUMMARY (ppm)
--------------------------


  Nucleus  Element    Isotropic     Anisotropy
  -------  -------  ------------   ------------
      0       C          188.880         27.969 
      1       C           90.381        296.207 
      2       H           29.896          8.977 
      3       H           29.895          9.040 
      4       H           29.886          8.977 
      5       N            1.401        472.232 



Timings for individual modules:

Sum of individual times         ...        6.963 sec (=   0.116 min)
GTO integral calculation        ...        0.132 sec (=   0.002 min)   1.9 %
SCF iterations                  ...        3.748 sec (=   0.062 min)  53.8 %
SCF-level EPR/NMR calculation   ...        3.084 sec (=   0.051 min)  44.3 %
                             ****ORCA TERMINATED NORMALLY****
TOTAL RUN TIME: 0 days 0 hours 0 minutes 7 seconds 65 msec
