9
	Energy:       5.3425671
C         -5.64267        2.69500       -0.27586
N         -5.94550        1.59244       -0.43688
C         -5.27963        4.13502       -0.04870
C         -3.89214        4.58334       -0.80469
H         -5.26358        4.28656        1.05147
H         -6.16632        4.73172       -0.34945
H         -2.99037        4.02187       -0.49291
H         -3.59368        5.64263       -0.67097
H         -3.90197        4.45697       -1.90445


