
                                 *****************
                                 * O   R   C   A *
                                 *****************

           --- An Ab Initio, DFT and Semiempirical electronic structure package ---

                  #######################################################
                  #                        -***-                        #
                  #  Department of molecular theory and spectroscopy    #
                  #              Directorship: Frank Neese              #
                  # Max Planck Institute for Chemical Energy Conversion #
                  #                  D-45470 Muelheim/Ruhr              #
                  #                       Germany                       #
                  #                                                     #
                  #                  All rights reserved                #
                  #                        -***-                        #
                  #######################################################


                         Program Version 4.0.0.2 - RELEASE -


 With contributions from (in alphabetic order):
   Daniel Aravena         : Magnetic Properties
   Michael Atanasov       : Ab Initio Ligand Field Theory
   Ute Becker             : Parallelization
   Martin Brehm           : Molecular dynamics
   Dmytro Bykov           : SCF Hessian
   Vijay G. Chilkuri      : MRCI spin determinant printing
   Dipayan Datta          : RHF DLPNO-CCSD density
   Achintya Kumar Dutta   : EOM-CC, STEOM-CC
   Dmitry Ganyushin       : Spin-Orbit,Spin-Spin,Magnetic field MRCI
   Yang Guo               : DLPNO-NEVPT2, CIM, IAO-localization
   Andreas Hansen         : Spin unrestricted coupled pair/coupled cluster methods
   Lee Huntington         : MR-EOM, pCC
   Robert Izsak           : Overlap fitted RIJCOSX, COSX-SCS-MP3, EOM
   Christian Kollmar      : KDIIS, OOCD, Brueckner-CCSD(T), CCSD density
   Simone Kossmann        : Meta GGA functionals, TD-DFT gradient, OOMP2, MP2 Hessian
   Martin Krupicka        : AUTO-CI
   Dagmar Lenk            : GEPOL surface
   Dimitrios Liakos       : Extrapolation schemes; parallel MDCI
   Dimitrios Manganas     : ROCIS; embedding schemes
   Dimitrios Pantazis     : SARC Basis sets
   Taras Petrenko         : DFT Hessian,TD-DFT gradient, ASA, ECA, R-Raman, ABS, FL, XAS/XES, NRVS
   Peter Pinski           : DLPNO-MP2
   Christoph Reimann      : Effective Core Potentials
   Marius Retegan         : Local ZFS, SOC
   Christoph Riplinger    : Optimizer, TS searches, QM/MM, DLPNO-CCSD(T), (RO)-DLPNO pert. Triples
   Tobias Risthaus        : Range-separated hybrids, TD-DFT gradient, RPA, STAB
   Michael Roemelt        : Restricted open shell CIS
   Masaaki Saitow         : Open-shell DLPNO
   Barbara Sandhoefer     : DKH picture change effects
   Kantharuban Sivalingam : CASSCF convergence, NEVPT2, FIC-MRCI
   Georgi Stoychev        : AutoAux
   Boris Wezisla          : Elementary symmetry handling
   Frank Wennmohs         : Technical directorship


 We gratefully acknowledge several colleagues who have allowed us to
 interface, adapt or use parts of their codes:
   Stefan Grimme, W. Hujo, H. Kruse,             : VdW corrections, initial TS optimization,
                  C. Bannwarth                     DFT functionals, gCP, sTDA/sTD-DF
   Ed Valeev                                     : LibInt (2-el integral package), F12 methods
   Garnet Chan, S. Sharma, J. Yang, R. Olivares  : DMRG
   Ulf Ekstrom                                   : XCFun DFT Library
   Mihaly Kallay                                 : mrcc  (arbitrary order and MRCC methods)
   Jiri Pittner, Ondrej Demel                    : Mk-CCSD
   Frank Weinhold                                : gennbo (NPA and NBO analysis)
   Christopher J. Cramer and Donald G. Truhlar   : smd solvation model


 Your calculation uses the libint2 library for the computation of 2-el integrals
 For citations please refer to: http://libint.valeyev.net

 This ORCA versions uses:
   CBLAS   interface :  Fast vector & matrix operations
   LAPACKE interface :  Fast linear algebra routines
   SCALAPACK package :  Parallel linear algebra routines




*****************************************
The coordinations will be read from file: guess.xyz
*****************************************



Information: The global flag for chemical shieldings has been found
             ==>> will calculate the chemical shifts for all atoms in the system

Your calculation utilizes the basis: cc-pVDZ 
       H, B-Ne : Obtained from the ccRepo (grant-hill.group.shef.ac.uk/ccrepo) Feb. 2017
                 T. H. Dunning, Jr., J. Chem. Phys. 90, 1007 (1989)
            He : Obtained from the ccRepo (grant-hill.group.shef.ac.uk/ccrepo) Feb. 2017
                 D. E. Woon, T. H. Dunning, Jr., J. Chem. Phys. 100, 2975 (1994)
  Li-Be, Na-Mg : Obtained from the ccRepo (grant-hill.group.shef.ac.uk/ccrepo) Feb. 2017
                 B. P. Prascher, D. E. Woon, K. A. Peterson, T. H. Dunning, Jr., A. K. Wilson, Theor. Chem. Acc. 128, 69 (2011)
         Al-Ar : Obtained from the ccRepo (grant-hill.group.shef.ac.uk/ccrepo) Feb. 2017
                 D. E. Woon, T. H. Dunning, Jr., J. Chem. Phys. 98, 1358 (1993)
            Ca : Obtained from the Peterson Research Group Website (tyr0.chem.wsu.edu/~kipeters) Feb. 2017
                 J. Koput, K. A. Peterson, J. Phys. Chem. 106, 9595 (2002)
         Sc-Zn : Obtained from the ccRepo (grant-hill.group.shef.ac.uk/ccrepo) Feb. 2017
                 N. B. Balabanov, K. A. Peterson, J. Chem. Phys. 123, 064107 (2005)
                 N. B. Balabanov, K. A. Peterson, J. Chem. Phys. 125, 074110 (2006)
         Ga-Kr : Obtained from the ccRepo (grant-hill.group.shef.ac.uk/ccrepo) Feb. 2017
                 A. K. Wilson, D. E. Woon, K. A. Peterson, T. H. Dunning, Jr., J. Chem. Phys. 110, 7667 (1999)

Your calculation utilizes the auxiliary basis: def2/J
   F. Weigend, Phys. Chem. Chem. Phys. 8, 1057 (2006).

================================================================================
                                        WARNINGS
                       Please study these warnings very carefully!
================================================================================

Warning: TCutStore was < 0. Adjusted to Thresh (uncritical)

INFO   : the flag for use of LIBINT has been found!

CheckInput: checking for shifts: .
================================================================================
                                       INPUT FILE
================================================================================
NAME = /home/jan/SoftwareDevelopment/karminus/output/olyp_ccpvdz/acetone/acetone.in
|  1> !cc-pvdz OLYP NMR
|  2> 
|  3> *xyzfile 0 1 guess.xyz
|  4> 
|  5> 
|  6>                          ****END OF INPUT****
================================================================================

                       ****************************
                       * Single Point Calculation *
                       ****************************

---------------------------------
CARTESIAN COORDINATES (ANGSTROEM)
---------------------------------
  C    -11.257270    3.613040    6.717770
  C    -11.216050    5.157860    6.948300
  H    -10.579860    3.120280    6.015910
  H    -12.269990    3.373740    6.341600
  H    -11.219800    3.069430    7.675670
  C    -10.074170    6.170000    6.610600
  H     -9.331790    5.953500    5.838090
  H     -9.551660    6.511030    7.518280
  H    -10.570820    7.093570    6.255700
  O    -12.189840    5.631450    7.520470

----------------------------
CARTESIAN COORDINATES (A.U.)
----------------------------
  NO LB      ZA    FRAG     MASS         X           Y           Z
   0 C     6.0000    0    12.011  -21.273157    6.827656   12.694746
   1 C     6.0000    0    12.011  -21.195263    9.746943   13.130384
   2 H     1.0000    0     1.008  -19.993038    5.896475   11.368422
   3 H     1.0000    0     1.008  -23.186921    6.375445   11.983887
   4 H     1.0000    0     1.008  -21.202349    5.800382   14.504914
   5 C     6.0000    0    12.011  -19.037422   11.659610   12.492224
   6 H     1.0000    0     1.008  -17.634527   11.250485   11.032391
   7 H     1.0000    0     1.008  -18.050022   12.304064   14.207490
   8 H     1.0000    0     1.008  -19.975955   13.404905   11.821560
   9 O     8.0000    0    15.999  -23.035459   10.641898   14.211629

--------------------------------
INTERNAL COORDINATES (ANGSTROEM)
--------------------------------
 C      0   0   0     0.000000000000     0.00000000     0.00000000
 C      1   0   0     1.562469840253     0.00000000     0.00000000
 H      1   2   0     1.092842250876   121.61493992     0.00000000
 H      1   2   3     1.106512610547   106.74577173   240.42332073
 H      1   2   3     1.102038222114   111.01197961   129.22439561
 C      2   1   3     1.562804723566   128.88221658   341.51847054
 H      6   2   1     1.093056272339   121.37843229    23.59344813
 H      6   2   1     1.101454104082   111.65787243   253.24614715
 H      6   2   1     1.107066744781   106.36651704   142.03130505
 O      2   1   3     1.224717502569   115.48523269   164.76341675

---------------------------
INTERNAL COORDINATES (A.U.)
---------------------------
 C      0   0   0     0.000000000000     0.00000000     0.00000000
 C      1   0   0     2.952640090590     0.00000000     0.00000000
 H      1   2   0     2.065172561734   121.61493992     0.00000000
 H      1   2   3     2.091005797664   106.74577173   240.42332073
 H      1   2   3     2.082550428909   111.01197961   129.22439561
 C      2   1   3     2.953272928338   128.88221658   341.51847054
 H      6   2   1     2.065577003686   121.37843229    23.59344813
 H      6   2   1     2.081446605799   111.65787243   253.24614715
 H      6   2   1     2.092052959608   106.36651704   142.03130505
 O      2   1   3     2.314380671276   115.48523269   164.76341675

---------------------
BASIS SET INFORMATION
---------------------
There are 3 groups of distinct atoms

 Group   1 Type C   : 17s4p1d contracted to 3s2p1d pattern {881/31/1}
 Group   2 Type H   : 4s1p contracted to 2s1p pattern {31/1}
 Group   3 Type O   : 17s4p1d contracted to 3s2p1d pattern {881/31/1}

Atom   0C    basis set group =>   1
Atom   1C    basis set group =>   1
Atom   2H    basis set group =>   2
Atom   3H    basis set group =>   2
Atom   4H    basis set group =>   2
Atom   5C    basis set group =>   1
Atom   6H    basis set group =>   2
Atom   7H    basis set group =>   2
Atom   8H    basis set group =>   2
Atom   9O    basis set group =>   3
-------------------------------
AUXILIARY BASIS SET INFORMATION
-------------------------------
There are 3 groups of distinct atoms

 Group   1 Type C   : 12s5p4d2f1g contracted to 6s4p3d1f1g pattern {711111/2111/211/2/1}
 Group   2 Type H   : 5s2p1d contracted to 3s1p1d pattern {311/2/1}
 Group   3 Type O   : 12s5p4d2f1g contracted to 6s4p3d1f1g pattern {711111/2111/211/2/1}

Atom   0C    basis set group =>   1
Atom   1C    basis set group =>   1
Atom   2H    basis set group =>   2
Atom   3H    basis set group =>   2
Atom   4H    basis set group =>   2
Atom   5C    basis set group =>   1
Atom   6H    basis set group =>   2
Atom   7H    basis set group =>   2
Atom   8H    basis set group =>   2
Atom   9O    basis set group =>   3
------------------------------------------------------------------------------
                           ORCA GTO INTEGRAL CALCULATION
                           -- RI-GTO INTEGRALS CHOSEN --
------------------------------------------------------------------------------

                         BASIS SET STATISTICS AND STARTUP INFO

Gaussian basis set:
 # of primitive gaussian shells          ...  118
 # of primitive gaussian functions       ...  178
 # of contracted shells                  ...   42
 # of contracted basis functions         ...   86
 Highest angular momentum                ...    2
 Maximum contraction depth               ...    8
Auxiliary gaussian basis set:
 # of primitive gaussian shells          ...  144
 # of primitive gaussian functions       ...  376
 # of contracted shells                  ...   90
 # of contracted aux-basis functions     ...  262
 Highest angular momentum                ...    4
 Maximum contraction depth               ...    7
Ratio of auxiliary to basis functions    ...  3.05
Integral package used                  ... LIBINT
 One Electron integrals                  ... done
 Ordering auxiliary basis shells         ... done
 Integral threshhold             Thresh  ...  1.000e-10
 Primitive cut-off               TCut    ...  1.000e-11
 Pre-screening matrix                    ... done
 Shell pair data                         ... 
 Ordering of the shell pairs             ... done (   0.000 sec) 903 of 903 pairs
 Determination of significant pairs      ... done (   0.000 sec)
 Creation of shell pair data             ... done (   0.001 sec)
 Storage of shell pair data              ... done (   0.000 sec)
 Shell pair data done in (   0.001 sec)
 Computing two index integrals           ... done
 Cholesky decomposition of the V-matrix  ... done


Timings:
 Total evaluation time                   ...   0.119 sec (  0.002 min)
 One electron matrix time                ...   0.006 sec (  0.000 min) =  5.4%
 Schwartz matrix evaluation time         ...   0.093 sec (  0.002 min) = 78.6%
 Two index repulsion integral time       ...   0.002 sec (  0.000 min) =  1.3%
 Cholesky decomposition of V             ...   0.001 sec (  0.000 min) =  0.6%
 Three index repulsion integral time     ...   0.000 sec (  0.000 min) =  0.0%

-------------------------------------------------------------------------------
                                 ORCA SCF
-------------------------------------------------------------------------------

------------
SCF SETTINGS
------------
Hamiltonian:
 Density Functional     Method          .... DFT(GTOs)
 Exchange Functional    Exchange        .... OPTX
 Correlation Functional Correlation     .... LYP
 Gradients option       PostSCFGGA      .... off
 RI-approximation to the Coulomb term is turned on
   Number of auxiliary basis functions  .... 262


General Settings:
 Integral files         IntName         .... /home/jan/SoftwareDevelopment/karminus/output/olyp_ccpvdz/acetone/acetone
 Hartree-Fock type      HFTyp           .... RHF
 Total Charge           Charge          ....    0
 Multiplicity           Mult            ....    1
 Number of Electrons    NEL             ....   32
 Basis Dimension        Dim             ....   86
 Nuclear Repulsion      ENuc            ....    116.8215848902 Eh

Convergence Acceleration:
 DIIS                   CNVDIIS         .... on
   Start iteration      DIISMaxIt       ....    12
   Startup error        DIISStart       ....  0.200000
   # of expansion vecs  DIISMaxEq       ....     5
   Bias factor          DIISBfac        ....   1.050
   Max. coefficient     DIISMaxC        ....  10.000
 Newton-Raphson         CNVNR           .... off
 SOSCF                  CNVSOSCF        .... on
   Start iteration      SOSCFMaxIt      ....   150
   Startup grad/error   SOSCFStart      ....  0.003300
 Level Shifting         CNVShift        .... on
   Level shift para.    LevelShift      ....    0.2500
   Turn off err/grad.   ShiftErr        ....    0.0010
 Zerner damping         CNVZerner       .... off
 Static damping         CNVDamp         .... on
   Fraction old density DampFac         ....    0.7000
   Max. Damping (<1)    DampMax         ....    0.9800
   Min. Damping (>=0)   DampMin         ....    0.0000
   Turn off err/grad.   DampErr         ....    0.1000
 Fernandez-Rico         CNVRico         .... off

SCF Procedure:
 Maximum # iterations   MaxIter         ....   125
 SCF integral mode      SCFMode         .... Direct
   Integral package                     .... LIBINT
 Reset frequeny         DirectResetFreq ....    20
 Integral Threshold     Thresh          ....  1.000e-10 Eh
 Primitive CutOff       TCut            ....  1.000e-11 Eh

Convergence Tolerance:
 Convergence Check Mode ConvCheckMode   .... Total+1el-Energy
 Convergence forced     ConvForced      .... 0
 Energy Change          TolE            ....  1.000e-06 Eh
 1-El. energy change                    ....  1.000e-03 Eh
 Orbital Gradient       TolG            ....  5.000e-05
 Orbital Rotation angle TolX            ....  5.000e-05
 DIIS Error             TolErr          ....  1.000e-06


Diagonalization of the overlap matrix:
Smallest eigenvalue                        ... 4.203e-03
Time for diagonalization                   ...    0.001 sec
Threshold for overlap eigenvalues          ... 1.000e-08
Number of eigenvalues below threshold      ... 0
Time for construction of square roots      ...    0.000 sec
Total time needed                          ...    0.001 sec

-------------------
DFT GRID GENERATION
-------------------

General Integration Accuracy     IntAcc      ...  4.340
Radial Grid Type                 RadialGrid  ... Gauss-Chebyshev
Angular Grid (max. acc.)         AngularGrid ... Lebedev-110
Angular grid pruning method      GridPruning ... 3 (G Style)
Weight generation scheme         WeightScheme... Becke
Basis function cutoff            BFCut       ...    1.0000e-10
Integration weight cutoff        WCut        ...    1.0000e-14
Grids for H and He will be reduced by one unit

# of grid points (after initial pruning)     ...  11448 (   0.0 sec)
# of grid points (after weights+screening)   ...  10937 (   0.0 sec)
nearest neighbour list constructed           ...    0.0 sec
Grid point re-assignment to atoms done       ...    0.0 sec
Grid point division into batches done        ...    0.0 sec
Reduced shell lists constructed in    0.2 sec

Total number of grid points                  ...    10937
Total number of batches                      ...      178
Average number of points per batch           ...       61
Average number of grid points per atom       ...     1094
Average number of shells per batch           ...    35.58 (84.72%)
Average number of basis functions per batch  ...    71.31 (82.92%)
Average number of large shells per batch     ...    29.08 (81.74%)
Average number of large basis fcns per batch ...    58.25 (81.68%)
Maximum spatial batch extension              ...  19.57, 20.05, 20.46 au
Average spatial batch extension              ...   4.22,  4.21,  4.27 au

Time for grid setup =    0.166 sec

------------------------------
INITIAL GUESS: MODEL POTENTIAL
------------------------------
Loading Hartree-Fock densities                     ... done
Calculating cut-offs                               ... done
Setting up the integral package                    ... done
Initializing the effective Hamiltonian             ... done
Starting the Coulomb interaction                   ... done (   0.1 sec)
Reading the grid                                   ... done
Mapping shells                                     ... done
Starting the XC term evaluation                    ... done (   0.2 sec)
  promolecular density results
     # of electrons  =     31.993298382
     EX              =    -25.309054726
     EC              =     -1.045310717
     EX+EC           =    -26.354365443
Transforming the Hamiltonian                       ... done (   0.0 sec)
Diagonalizing the Hamiltonian                      ... done (   0.0 sec)
Back transforming the eigenvectors                 ... done (   0.0 sec)
Now organizing SCF variables                       ... done
                      ------------------
                      INITIAL GUESS DONE (   0.5 sec)
                      ------------------
--------------
SCF ITERATIONS
--------------
ITER       Energy         Delta-E        Max-DP      RMS-DP      [F,P]     Damp
               ***  Starting incremental Fock matrix formation  ***
  0   -192.9238239727   0.000000000000 0.10577056  0.00417193  0.2433622 0.7000
  1   -193.0063943678  -0.082570395057 0.05421377  0.00262078  0.0738336 0.7000
                               ***Turning on DIIS***
  2   -193.0286486365  -0.022254268781 0.05520727  0.00363980  0.0276994 0.0000
  3   -193.0725731568  -0.043924520203 0.03583856  0.00187565  0.0474739 0.0000
  4   -193.0806279347  -0.008054777942 0.01367960  0.00063447  0.0297069 0.0000
  5   -193.0828184092  -0.002190474545 0.00347081  0.00024965  0.0073322 0.0000
                      *** Initiating the SOSCF procedure ***
                           *** Shutting down DIIS ***
                      *** Re-Reading the Fockian *** 
                      *** Removing any level shift *** 
ITER      Energy       Delta-E        Grad      Rot      Max-DP    RMS-DP
  6   -193.08298026  -0.0001618555  0.000452  0.000452  0.001042  0.000081
               *** Restarting incremental Fock matrix formation ***
  7   -193.08299109  -0.0000108295  0.000179  0.000715  0.000819  0.000053
                 **** Energy Check signals convergence ****
              ***Rediagonalizing the Fockian in SOSCF/NRSCF***

               *****************************************************
               *                     SUCCESS                       *
               *           SCF CONVERGED AFTER   8 CYCLES          *
               *****************************************************

Setting up the final grid:

General Integration Accuracy     IntAcc      ...  4.670
Radial Grid Type                 RadialGrid  ... Gauss-Chebyshev
Angular Grid (max. acc.)         AngularGrid ... Lebedev-302
Angular grid pruning method      GridPruning ... 3 (G Style)
Weight generation scheme         WeightScheme... Becke
Basis function cutoff            BFCut       ...    1.0000e-10
Integration weight cutoff        WCut        ...    1.0000e-14
Grids for H and He will be reduced by one unit

# of grid points (after initial pruning)     ...  45212 (   0.0 sec)
# of grid points (after weights+screening)   ...  42806 (   0.0 sec)
nearest neighbour list constructed           ...    0.0 sec
Grid point re-assignment to atoms done       ...    0.0 sec
Grid point division into batches done        ...    0.1 sec
Reduced shell lists constructed in    0.7 sec

Total number of grid points                  ...    42806
Total number of batches                      ...      675
Average number of points per batch           ...       63
Average number of grid points per atom       ...     4281
Average number of shells per batch           ...    32.43 (77.22%)
Average number of basis functions per batch  ...    64.78 (75.33%)
Average number of large shells per batch     ...    25.95 (80.01%)
Average number of large basis fcns per batch ...    51.62 (79.69%)
Maximum spatial batch extension              ...  17.38, 17.88, 16.58 au
Average spatial batch extension              ...   2.80,  2.83,  2.78 au

Final grid set up in    0.8 sec
Final integration                            ... done (   0.6 sec)
Change in XC energy                          ...     0.000124565
Integrated number of electrons               ...    32.000007256
Previous integrated no of electrons          ...    31.999305946

----------------
TOTAL SCF ENERGY
----------------

Total Energy       :         -193.08286574 Eh           -5254.05189 eV

Components:
Nuclear Repulsion  :          116.82158489 Eh            3178.87694 eV
Electronic Energy  :         -309.90445063 Eh           -8432.92882 eV
One Electron Energy:         -492.41949741 Eh          -13399.41574 eV
Two Electron Energy:          182.51504679 Eh            4966.48691 eV

Virial components:
Potential Energy   :         -384.81048629 Eh          -10471.22568 eV
Kinetic Energy     :          191.72762056 Eh            5217.17379 eV
Virial Ratio       :            2.00706860


DFT components:
N(Alpha)           :       16.000003627923 electrons
N(Beta)            :       16.000003627923 electrons
N(Total)           :       32.000007255846 electrons
E(X)               :      -25.936063945701 Eh       
E(C)               :       -1.054318744661 Eh       
E(XC)              :      -26.990382690362 Eh       

---------------
SCF CONVERGENCE
---------------

  Last Energy change         ...    7.9334e-07  Tolerance :   1.0000e-06
  Last MAX-Density change    ...    6.2633e-04  Tolerance :   1.0000e-05
  Last RMS-Density change    ...    2.2587e-05  Tolerance :   1.0000e-06
  Last Orbital Gradient      ...    4.6223e-04  Tolerance :   5.0000e-05
  Last Orbital Rotation      ...    5.5529e-04  Tolerance :   5.0000e-05

             **** THE GBW FILE WAS UPDATED (/home/jan/SoftwareDevelopment/karminus/output/olyp_ccpvdz/acetone/acetone.gbw) ****
             **** DENSITY FILE WAS UPDATED (/home/jan/SoftwareDevelopment/karminus/output/olyp_ccpvdz/acetone/acetone.scfp.tmp) ****
             **** ENERGY FILE WAS UPDATED (/home/jan/SoftwareDevelopment/karminus/output/olyp_ccpvdz/acetone/acetone.en.tmp) ****
----------------
ORBITAL ENERGIES
----------------

  NO   OCC          E(Eh)            E(eV) 
   0   2.0000     -18.755489      -510.3628 
   1   2.0000     -10.005307      -272.2583 
   2   2.0000      -9.921930      -269.9894 
   3   2.0000      -9.921579      -269.9799 
   4   2.0000      -0.948629       -25.8135 
   5   2.0000      -0.671755       -18.2794 
   6   2.0000      -0.642831       -17.4923 
   7   2.0000      -0.478327       -13.0159 
   8   2.0000      -0.405410       -11.0318 
   9   2.0000      -0.392974       -10.6934 
  10   2.0000      -0.378317       -10.2945 
  11   2.0000      -0.350910        -9.5487 
  12   2.0000      -0.335633        -9.1330 
  13   2.0000      -0.323344        -8.7986 
  14   2.0000      -0.292731        -7.9656 
  15   2.0000      -0.194045        -5.2802 
  16   0.0000      -0.052129        -1.4185 
  17   0.0000       0.039460         1.0737 
  18   0.0000       0.073823         2.0088 
  19   0.0000       0.089172         2.4265 
  20   0.0000       0.109704         2.9852 
  21   0.0000       0.114494         3.1155 
  22   0.0000       0.117114         3.1868 
  23   0.0000       0.138472         3.7680 
  24   0.0000       0.249339         6.7848 
  25   0.0000       0.253998         6.9116 
  26   0.0000       0.374237        10.1835 
  27   0.0000       0.398310        10.8386 
  28   0.0000       0.419474        11.4145 
  29   0.0000       0.446012        12.1366 
  30   0.0000       0.490444        13.3456 
  31   0.0000       0.538792        14.6613 
  32   0.0000       0.547465        14.8973 
  33   0.0000       0.585339        15.9279 
  34   0.0000       0.590747        16.0750 
  35   0.0000       0.595657        16.2086 
  36   0.0000       0.599839        16.3225 
  37   0.0000       0.619230        16.8501 
  38   0.0000       0.632975        17.2241 
  39   0.0000       0.634852        17.2752 
  40   0.0000       0.681867        18.5546 
  41   0.0000       0.787454        21.4277 
  42   0.0000       0.794629        21.6229 
  43   0.0000       0.834864        22.7178 
  44   0.0000       0.945423        25.7263 
  45   0.0000       1.011306        27.5190 
  46   0.0000       1.064069        28.9548 
  47   0.0000       1.080757        29.4089 
  48   0.0000       1.107109        30.1260 
  49   0.0000       1.130177        30.7537 
  50   0.0000       1.202886        32.7322 
  51   0.0000       1.281071        34.8597 
  52   0.0000       1.320767        35.9399 
  53   0.0000       1.365026        37.1443 
  54   0.0000       1.374779        37.4096 
  55   0.0000       1.382555        37.6212 
  56   0.0000       1.446347        39.3571 
  57   0.0000       1.533803        41.7369 
  58   0.0000       1.561068        42.4788 
  59   0.0000       1.582809        43.0704 
  60   0.0000       1.592859        43.3439 
  61   0.0000       1.614592        43.9353 
  62   0.0000       1.629500        44.3409 
  63   0.0000       1.689474        45.9729 
  64   0.0000       1.708068        46.4789 
  65   0.0000       1.715603        46.6839 
  66   0.0000       1.840165        50.0734 
  67   0.0000       1.880601        51.1738 
  68   0.0000       1.951365        53.0993 
  69   0.0000       2.035770        55.3961 
  70   0.0000       2.040334        55.5203 
  71   0.0000       2.066966        56.2450 
  72   0.0000       2.071316        56.3634 
  73   0.0000       2.172708        59.1224 
  74   0.0000       2.288146        62.2636 
  75   0.0000       2.313924        62.9651 
  76   0.0000       2.323725        63.2318 
  77   0.0000       2.377950        64.7073 
  78   0.0000       2.388181        64.9857 
  79   0.0000       2.407660        65.5157 
  80   0.0000       2.463597        67.0379 
  81   0.0000       2.623928        71.4007 
  82   0.0000       2.686747        73.1101 
  83   0.0000       2.966555        80.7241 
  84   0.0000       3.198800        87.0438 
  85   0.0000       3.341681        90.9318 

                    ********************************
                    * MULLIKEN POPULATION ANALYSIS *
                    ********************************

-----------------------
MULLIKEN ATOMIC CHARGES
-----------------------
   0 C :    0.043817
   1 C :   -0.031470
   2 H :    0.006099
   3 H :    0.031940
   4 H :    0.040236
   5 C :    0.043271
   6 H :    0.006513
   7 H :    0.038762
   8 H :    0.032772
   9 O :   -0.211941
Sum of atomic charges:    0.0000000

--------------------------------
MULLIKEN REDUCED ORBITAL CHARGES
--------------------------------
  0 C s       :     3.048539  s :     3.048539
      pz      :     0.968413  p :     2.876233
      px      :     0.985630
      py      :     0.922190
      dz2     :     0.004464  d :     0.031411
      dxz     :     0.003717
      dyz     :     0.008018
      dx2y2   :     0.009263
      dxy     :     0.005950
  1 C s       :     3.231478  s :     3.231478
      pz      :     0.799636  p :     2.636624
      px      :     0.872365
      py      :     0.964622
      dz2     :     0.017285  d :     0.163367
      dxz     :     0.023992
      dyz     :     0.024687
      dx2y2   :     0.051259
      dxy     :     0.046144
  2 H s       :     0.961375  s :     0.961375
      pz      :     0.012179  p :     0.032526
      px      :     0.012133
      py      :     0.008214
  3 H s       :     0.936084  s :     0.936084
      pz      :     0.008796  p :     0.031976
      px      :     0.017304
      py      :     0.005877
  4 H s       :     0.927018  s :     0.927018
      pz      :     0.016185  p :     0.032746
      px      :     0.007775
      py      :     0.008786
  5 C s       :     3.046863  s :     3.046863
      pz      :     0.960354  p :     2.878682
      px      :     0.950702
      py      :     0.967626
      dz2     :     0.004161  d :     0.031184
      dxz     :     0.008646
      dyz     :     0.003768
      dx2y2   :     0.005789
      dxy     :     0.008820
  6 H s       :     0.960971  s :     0.960971
      pz      :     0.013340  p :     0.032516
      px      :     0.012537
      py      :     0.006639
  7 H s       :     0.928304  s :     0.928304
      pz      :     0.015177  p :     0.032934
      px      :     0.009802
      py      :     0.007955
  8 H s       :     0.935409  s :     0.935409
      pz      :     0.008530  p :     0.031819
      px      :     0.008809
      py      :     0.014480
  9 O s       :     3.778084  s :     3.778084
      pz      :     1.295499  p :     4.416460
      px      :     1.413244
      py      :     1.707717
      dz2     :     0.002955  d :     0.017396
      dxz     :     0.004803
      dyz     :     0.001821
      dx2y2   :     0.003751
      dxy     :     0.004067


                     *******************************
                     * LOEWDIN POPULATION ANALYSIS *
                     *******************************

----------------------
LOEWDIN ATOMIC CHARGES
----------------------
   0 C :   -0.084307
   1 C :   -0.041805
   2 H :    0.020558
   3 H :    0.045968
   4 H :    0.046790
   5 C :   -0.084547
   6 H :    0.020990
   7 H :    0.046159
   8 H :    0.045708
   9 O :   -0.015513

-------------------------------
LOEWDIN REDUCED ORBITAL CHARGES
-------------------------------
  0 C s       :     2.834558  s :     2.834558
      pz      :     1.057120  p :     3.125828
      px      :     1.067394
      py      :     1.001313
      dz2     :     0.019516  d :     0.123921
      dxz     :     0.020210
      dyz     :     0.029866
      dx2y2   :     0.035448
      dxy     :     0.018881
  1 C s       :     2.902638  s :     2.902638
      pz      :     0.800417  p :     2.752709
      px      :     0.954879
      py      :     0.997413
      dz2     :     0.035106  d :     0.386458
      dxz     :     0.060627
      dyz     :     0.055990
      dx2y2   :     0.123090
      dxy     :     0.111645
  2 H s       :     0.895695  s :     0.895695
      pz      :     0.030246  p :     0.083748
      px      :     0.029442
      py      :     0.024060
  3 H s       :     0.874939  s :     0.874939
      pz      :     0.019373  p :     0.079094
      px      :     0.042901
      py      :     0.016819
  4 H s       :     0.872243  s :     0.872243
      pz      :     0.039721  p :     0.080967
      px      :     0.017314
      py      :     0.023932
  5 C s       :     2.834716  s :     2.834716
      pz      :     1.053496  p :     3.126173
      px      :     1.034884
      py      :     1.037793
      dz2     :     0.017593  d :     0.123658
      dxz     :     0.038768
      dyz     :     0.015128
      dx2y2   :     0.017797
      dxy     :     0.034372
  6 H s       :     0.895297  s :     0.895297
      pz      :     0.033057  p :     0.083712
      px      :     0.032797
      py      :     0.017859
  7 H s       :     0.872584  s :     0.872584
      pz      :     0.037207  p :     0.081257
      px      :     0.023242
      py      :     0.020808
  8 H s       :     0.875339  s :     0.875339
      pz      :     0.018793  p :     0.078953
      px      :     0.021459
      py      :     0.038701
  9 O s       :     3.512008  s :     3.512008
      pz      :     1.310369  p :     4.472971
      px      :     1.475536
      py      :     1.687066
      dz2     :     0.003695  d :     0.030534
      dxz     :     0.008981
      dyz     :     0.003279
      dx2y2   :     0.006863
      dxy     :     0.007716


                      *****************************
                      * MAYER POPULATION ANALYSIS *
                      *****************************

  NA   - Mulliken gross atomic population
  ZA   - Total nuclear charge
  QA   - Mulliken gross atomic charge
  VA   - Mayer's total valence
  BVA  - Mayer's bonded valence
  FA   - Mayer's free valence

  ATOM       NA         ZA         QA         VA         BVA        FA
  0 C      5.9562     6.0000     0.0438     3.9043     3.9043     0.0000
  1 C      6.0315     6.0000    -0.0315     4.2952     4.2952     0.0000
  2 H      0.9939     1.0000     0.0061     0.9757     0.9757    -0.0000
  3 H      0.9681     1.0000     0.0319     0.9982     0.9982     0.0000
  4 H      0.9598     1.0000     0.0402     0.9890     0.9890    -0.0000
  5 C      5.9567     6.0000     0.0433     3.9041     3.9041    -0.0000
  6 H      0.9935     1.0000     0.0065     0.9755     0.9755    -0.0000
  7 H      0.9612     1.0000     0.0388     0.9884     0.9884    -0.0000
  8 H      0.9672     1.0000     0.0328     0.9990     0.9990     0.0000
  9 O      8.2119     8.0000    -0.2119     2.2849     2.2849     0.0000

  Mayer bond orders larger than 0.1
B(  0-C ,  1-C ) :   1.0170 B(  0-C ,  2-H ) :   0.9547 B(  0-C ,  3-H ) :   0.9492 
B(  0-C ,  4-H ) :   0.9468 B(  1-C ,  5-C ) :   1.0185 B(  1-C ,  9-O ) :   2.1244 
B(  5-C ,  6-H ) :   0.9542 B(  5-C ,  7-H ) :   0.9462 B(  5-C ,  8-H ) :   0.9501 


-------
TIMINGS
-------

Total SCF time: 0 days 0 hours 0 min 5 sec 

Total time                  ....       5.054 sec
Sum of individual times     ....       5.045 sec  ( 99.8%)

Fock matrix formation       ....       3.784 sec  ( 74.9%)
  Split-RI-J                ....       1.662 sec  ( 43.9% of F)
  XC integration            ....       2.118 sec  ( 56.0% of F)
    Basis function eval.    ....       1.487 sec  ( 70.2% of XC)
    Density eval.           ....       0.205 sec  (  9.7% of XC)
    XC-Functional eval.     ....       0.063 sec  (  3.0% of XC)
    XC-Potential eval.      ....       0.331 sec  ( 15.6% of XC)
Diagonalization             ....       0.008 sec  (  0.2%)
Density matrix formation    ....       0.001 sec  (  0.0%)
Population analysis         ....       0.002 sec  (  0.0%)
Initial guess               ....       0.330 sec  (  6.5%)
Orbital Transformation      ....       0.000 sec  (  0.0%)
Orbital Orthonormalization  ....       0.000 sec  (  0.0%)
DIIS solution               ....       0.002 sec  (  0.0%)
SOSCF solution              ....       0.001 sec  (  0.0%)
Grid generation             ....       0.917 sec  ( 18.1%)

-------------------------   --------------------
FINAL SINGLE POINT ENERGY      -193.082865735894
-------------------------   --------------------


                            ***************************************
                            *     ORCA property calculations      *
                            ***************************************

                                    ---------------------
                                    Active property flags
                                    ---------------------
   (+) Dipole Moment
   (+) Chemical Shifts


------------------------------------------------------------------------------
                       ORCA ELECTRIC PROPERTIES CALCULATION
------------------------------------------------------------------------------

Dipole Moment Calculation                       ... on
Quadrupole Moment Calculation                   ... off
Polarizability Calculation                      ... off
GBWName                                         ... /home/jan/SoftwareDevelopment/karminus/output/olyp_ccpvdz/acetone/acetone.gbw
Electron density file                           ... /home/jan/SoftwareDevelopment/karminus/output/olyp_ccpvdz/acetone/acetone.scfp.tmp

-------------
DIPOLE MOMENT
-------------
                                X             Y             Z
Electronic contribution:     -2.69248       1.30261       1.56829
Nuclear contribution   :      3.38454      -1.64148      -1.93575
                        -----------------------------------------
Total Dipole Moment    :      0.69206      -0.33887      -0.36746
                        -----------------------------------------
Magnitude (a.u.)       :      0.85370
Magnitude (Debye)      :      2.16994

------------------------------------------------------------------------------
                                ORCA EPR/NMR CALCULATION
------------------------------------------------------------------------------

GBWName                      ... /home/jan/SoftwareDevelopment/karminus/output/olyp_ccpvdz/acetone/acetone.gbw
Electron density file        ... /home/jan/SoftwareDevelopment/karminus/output/olyp_ccpvdz/acetone/acetone.scfp.tmp
Spin density file            ... /home/jan/SoftwareDevelopment/karminus/output/olyp_ccpvdz/acetone/acetone.scfr.tmp
Treatment of gauge           ... GIAO (approximations 1/2el = 0,3)
Details of the CP(SCF) procedure:
       Solver   = POPLE   
       MaxIter  =    64   
       Tolerance=    1.000e-06
       Op-0     =   0- 15 =>  16- 85
Multiplicity                 ... 1
g-tensor                     ... 0
NMR chemical shifts          ... 1
Number of nuclei for epr/nmr ... 10
   Nucleus:   0C 
       Hyperfine : Isotope=   13 I=   0.500 P= 134.188
       Quadrupole: Isotope=   13 I=   0.500 Q=   0.000
       Spin-Orbit: Zeff=   3.600
       rho(0)=N f(grad)=N a(iso)=N a(dip)=N a(orb)=N sigma(nmr)=Y
   Nucleus:   1C 
       Hyperfine : Isotope=   13 I=   0.500 P= 134.188
       Quadrupole: Isotope=   13 I=   0.500 Q=   0.000
       Spin-Orbit: Zeff=   3.600
       rho(0)=N f(grad)=N a(iso)=N a(dip)=N a(orb)=N sigma(nmr)=Y
   Nucleus:   2H 
       Hyperfine : Isotope=    1 I=   0.500 P= 533.552
       Quadrupole: Isotope=    2 I=   1.000 Q=   0.003
       Spin-Orbit: Zeff=   1.000
       rho(0)=N f(grad)=N a(iso)=N a(dip)=N a(orb)=N sigma(nmr)=Y
   Nucleus:   3H 
       Hyperfine : Isotope=    1 I=   0.500 P= 533.552
       Quadrupole: Isotope=    2 I=   1.000 Q=   0.003
       Spin-Orbit: Zeff=   1.000
       rho(0)=N f(grad)=N a(iso)=N a(dip)=N a(orb)=N sigma(nmr)=Y
   Nucleus:   4H 
       Hyperfine : Isotope=    1 I=   0.500 P= 533.552
       Quadrupole: Isotope=    2 I=   1.000 Q=   0.003
       Spin-Orbit: Zeff=   1.000
       rho(0)=N f(grad)=N a(iso)=N a(dip)=N a(orb)=N sigma(nmr)=Y
   Nucleus:   5C 
       Hyperfine : Isotope=   13 I=   0.500 P= 134.188
       Quadrupole: Isotope=   13 I=   0.500 Q=   0.000
       Spin-Orbit: Zeff=   3.600
       rho(0)=N f(grad)=N a(iso)=N a(dip)=N a(orb)=N sigma(nmr)=Y
   Nucleus:   6H 
       Hyperfine : Isotope=    1 I=   0.500 P= 533.552
       Quadrupole: Isotope=    2 I=   1.000 Q=   0.003
       Spin-Orbit: Zeff=   1.000
       rho(0)=N f(grad)=N a(iso)=N a(dip)=N a(orb)=N sigma(nmr)=Y
   Nucleus:   7H 
       Hyperfine : Isotope=    1 I=   0.500 P= 533.552
       Quadrupole: Isotope=    2 I=   1.000 Q=   0.003
       Spin-Orbit: Zeff=   1.000
       rho(0)=N f(grad)=N a(iso)=N a(dip)=N a(orb)=N sigma(nmr)=Y
   Nucleus:   8H 
       Hyperfine : Isotope=    1 I=   0.500 P= 533.552
       Quadrupole: Isotope=    2 I=   1.000 Q=   0.003
       Spin-Orbit: Zeff=   1.000
       rho(0)=N f(grad)=N a(iso)=N a(dip)=N a(orb)=N sigma(nmr)=Y
   Nucleus:   9O 
       Hyperfine : Isotope=   17 I=   2.500 P= -72.357
       Quadrupole: Isotope=   17 I=   2.500 Q=  -0.026
       Spin-Orbit: Zeff=   5.600
       rho(0)=N f(grad)=N a(iso)=N a(dip)=N a(orb)=N sigma(nmr)=Y
Using LibInt in CPSCF-CP

Forming RHS of the CP-SCF equations         ... 
Calculating right hand sides for GIAO treatment (new)  ... 
  Entering RightHandSide GIAO. ScalHFX=    0.0000 NeedHFX=0
     -> 1-electron GIAO integrals will be done analytically
     -> RI used in SCF and no Fock exchange. RIJK enforced by the user
     Making grid for GIAO integrations   ... done
     Test of existence of the V matrix   = 1
     Test of existence of the VCD matrix = 1
     Test of existence of the VO matrix  = 0
     Warning: RI is turned on for GIAO but the V matrix or its Cholesky decomposition are not found - making it
     Calculating V           ... done
     Cholesky decomposition  ... done
     Storing V and VCD       ... done
     Cholesky decomposition-2... done
     Storing VO              ... done
  Getting the pre-screening matrix        ... done
  Extracting occupied and virtual blocks  ... 
  Operator  0  NO=  16 NV=  70 
  One-electron GIAO integrals             ...   done
  Transforming and RHS contribution       ...   done
  Calculating F[B](P)                     ...  (RI-JK)
---------------------
RI-GIAO-TRANSFORMATION (AUX index driven)
----------------------

Dimension of the orbital-basis         ... 86
Dimension of the aux-basis             ... 262
Number of (i,a) MOs                    ... 16,70
Number of ij,ia,ab pairs               ... 256,1120,4900
Transformation of internal MOs         ...    0-  15
Transformation of internal/external MOs...    0-  15 to   16-  85

Mapping shells                                 ... done
Making shell addresses                         ... done
Figuring out significant basis function pairs  ... done
  N(Pairs)         ... 3741
  N(Strong pairs)  ... 3741
  Mem-Available    ... 1024 MB
  (p,q) per batch  ... 64031
  N(Batches)       ... 1
Preparing matrix containers                    ... done
Preparing AO buffer                            ... done
Calculating AO integrals and transforming AUX  ... done
Finished RI-GIAO integral generation and aux-index transformation in  1.086 sec
Mapping the MO pairs                            ... done
Getting memory                                  ... done
Second Phase: sorting and transformation of MO indices
Memory available                       ... 1024 MB 
Max. # Aux fcns treated in a batch     ... 262    
Initializing the MO transformation process      ... done
Batch   0: Q=   0 ...  261
   Reading      ... done
   Transforming ... done
Finished transformation of the MO indices in  0.185 sec
Initializing the sorting process                ... done

IJ-Resorting
# of internal pairs                    ... 256
# batches for internal pairs           ... 1
   (0) Reading      ... done
   (0) Writing      ... done
   (1) Reading      ... done
   (1) Writing      ... done
   (2) Reading      ... done
   (2) Writing      ... done
   (3) Reading      ... done
   (3) Writing      ... done
(ij|v) resorting done in     0.005 sec

IA-Resorting
# of internal orbitals                 ... 16
# batches for internal orbitals        ... 1
   (0) Reading      ... done
   (0) Writing      ... done
   (1) Reading      ... done
   (1) Writing      ... done
   (2) Reading      ... done
   (2) Writing      ... done
   (3) Reading      ... done
   (3) Writing      ... done
(ia|v) resorting done in     0.011 sec

  Resorting completed in     0.016 sec
RI-GIAO-Integral transformation completed in     1.332 sec
Reading RI-integrals ... done
Doing RI-JK          ... done
 => dG/dB done
  RI-JK GIAO contributions                ...   done
  DFT XC-terms                            ... done
  Transforming to MO basis/RHS contribs.  ... done
  GIAO profiling information: 
    Total GIAO time               ...       2.5 sec
       Grid setup                 ...       0.2 sec (  6.8%)
       RI-V-matrix setup          ...       0.0 sec (  1.5%)
       GIAO 1-electron integrals  ...       0.0 sec (  1.0%)
       GIAO RI-JK                 ...       0.5 sec ( 19.4%)
       GIAO RI integral trafo     ...       1.3 sec ( 53.9%)
       GIAO XC-terms              ...       0.4 sec ( 17.4%)

  GIAO right hand side done


Forming final perturbed densities           ... done
Transforming perturbed density to AO basis  ...  done

Magnetic field perturbation calculated in  2.540 sec

---------------
CHEMICAL SHIFTS
---------------

Note: using conversion factor for au to ppm alpha^2/2 =   26.625677252 
Doing GIAO para- and diamagnetic shielding integrals analytically     ...done
Doing remaining GIAO terms numerically                                ...done
 --------------
 Nucleus   0C :
 --------------

Diamagnetic contribution to the shielding tensor (ppm) : 
           258.777         -7.590         0.285
            14.894        241.682        -5.287
            13.397          1.495       252.274

Paramagnetic contribution to the shielding tensor (ppm): 
          -107.967         14.056         0.147
           -13.030        -46.333        17.378
           -10.667          3.125      -105.495

Total shielding tensor (ppm): 
           150.811          6.465         0.432
             1.864        195.349        12.091
             2.730          4.620       146.779


 Diagonalized sT*s matrix:
 
 sDSO           250.845          259.565          242.323  iso=     250.911
 sPSO          -105.602         -109.020          -45.173  iso=     -86.598
        ---------------  ---------------  ---------------
 Total          145.243          150.546          197.150  iso=     164.313

 --------------
 Nucleus   1C :
 --------------

Diamagnetic contribution to the shielding tensor (ppm) : 
           234.285          3.478       -43.232
             3.279        244.190        16.536
           -45.956         18.033       175.880

Paramagnetic contribution to the shielding tensor (ppm): 
          -248.349        -31.930        90.597
           -31.529       -311.654       -32.127
            93.231        -33.270      -104.042

Total shielding tensor (ppm): 
           -14.064        -28.452        47.366
           -28.249        -67.464       -15.591
            47.276        -15.238        71.838


 Diagonalized sT*s matrix:
 
 sDSO           260.112          245.147          149.095  iso=     218.118
 sPSO          -286.764         -325.028          -52.253  iso=    -221.348
        ---------------  ---------------  ---------------
 Total          -26.651          -79.881           96.842  iso=      -3.230

 --------------
 Nucleus   2H :
 --------------

Diamagnetic contribution to the shielding tensor (ppm) : 
            48.726         -5.443         9.446
             7.348         42.589        -4.070
            18.045         -3.718        59.846

Paramagnetic contribution to the shielding tensor (ppm): 
           -19.629          6.017       -11.024
            -9.870        -11.774         7.324
           -20.428          4.963       -31.387

Total shielding tensor (ppm): 
            29.097          0.573        -1.577
            -2.522         30.815         3.255
            -2.384          1.245        28.460


 Diagonalized sT*s matrix:
 
 sDSO            68.203           44.442           38.515  iso=      50.387
 sPSO           -41.786          -15.580           -5.424  iso=     -20.930
        ---------------  ---------------  ---------------
 Total           26.417           28.863           33.091  iso=      29.457

 --------------
 Nucleus   3H :
 --------------

Diamagnetic contribution to the shielding tensor (ppm) : 
            49.199         -5.984       -15.927
            11.276         15.017        -0.487
            24.882         -5.465        -6.022

Paramagnetic contribution to the shielding tensor (ppm): 
           -17.941          6.815        17.058
            -8.413         13.695         1.590
           -22.970          7.283        34.166

Total shielding tensor (ppm): 
            31.258          0.831         1.131
             2.863         28.712         1.103
             1.911          1.818        28.144


 Diagonalized sT*s matrix:
 
 sDSO             5.225           15.011           37.959  iso=      19.398
 sPSO            21.716           13.092           -4.889  iso=       9.973
        ---------------  ---------------  ---------------
 Total           26.941           28.103           33.071  iso=      29.372

 --------------
 Nucleus   4H :
 --------------

Diamagnetic contribution to the shielding tensor (ppm) : 
            10.150          2.215         5.381
            17.094         19.344       -15.991
           -32.998          6.569        47.231

Paramagnetic contribution to the shielding tensor (ppm): 
            17.263         -2.585        -5.470
           -17.047         11.099        12.660
            33.146         -9.059       -17.259

Total shielding tensor (ppm): 
            27.413         -0.370        -0.089
             0.047         30.444        -3.331
             0.149         -2.490        29.972


 Diagonalized sT*s matrix:
 
 sDSO            22.174           18.275           36.277  iso=      25.575
 sPSO             5.069            9.180           -3.146  iso=       3.701
        ---------------  ---------------  ---------------
 Total           27.243           27.455           33.131  iso=      29.276

 --------------
 Nucleus   5C :
 --------------

Diamagnetic contribution to the shielding tensor (ppm) : 
           246.585         -0.305         2.562
           -21.884        254.079         5.351
            12.622        -15.433       249.266

Paramagnetic contribution to the shielding tensor (ppm): 
           -74.909         19.748       -14.669
            45.368        -80.488       -16.395
           -16.803          7.070      -102.498

Total shielding tensor (ppm): 
           171.676         19.443       -12.107
            23.484        173.591       -11.044
            -4.181         -8.363       146.768


 Diagonalized sT*s matrix:
 
 sDSO           248.098          262.578          239.254  iso=     249.977
 sPSO          -104.570         -111.347          -41.978  iso=     -85.965
        ---------------  ---------------  ---------------
 Total          143.528          151.231          197.275  iso=     164.012

 --------------
 Nucleus   6H :
 --------------

Diamagnetic contribution to the shielding tensor (ppm) : 
            45.416          1.664         8.537
            -8.518         46.157        -2.576
            17.852        -13.025        59.284

Paramagnetic contribution to the shielding tensor (ppm): 
           -14.917         -2.596       -12.211
            10.514        -17.268         1.419
           -20.645         13.947       -30.354

Total shielding tensor (ppm): 
            30.498         -0.932        -3.674
             1.996         28.889        -1.157
            -2.792          0.921        28.930


 Diagonalized sT*s matrix:
 
 sDSO            68.148           44.362           38.346  iso=      50.285
 sPSO           -41.783          -15.505           -5.251  iso=     -20.846
        ---------------  ---------------  ---------------
 Total           26.365           28.857           33.095  iso=      29.439

 --------------
 Nucleus   7H :
 --------------

Diamagnetic contribution to the shielding tensor (ppm) : 
             7.808         14.920        17.301
            -3.364         25.988         6.776
           -22.929         20.412        48.005

Paramagnetic contribution to the shielding tensor (ppm): 
            21.830        -13.132       -14.860
             4.914          2.722        -4.719
            24.992        -19.121       -18.609

Total shielding tensor (ppm): 
            29.639          1.788         2.441
             1.550         28.710         2.057
             2.063          1.290        29.397


 Diagonalized sT*s matrix:
 
 sDSO            32.280           13.276           36.246  iso=      27.267
 sPSO            -5.037           14.169           -3.188  iso=       1.981
        ---------------  ---------------  ---------------
 Total           27.244           27.445           33.057  iso=      29.248

 --------------
 Nucleus   8H :
 --------------

Diamagnetic contribution to the shielding tensor (ppm) : 
            27.216         -9.007       -10.700
           -24.501         36.380        11.168
            20.021        -16.067        -5.823

Paramagnetic contribution to the shielding tensor (ppm): 
             0.758          8.903        10.475
            22.242         -4.498       -12.668
           -20.121         13.289        34.004

Total shielding tensor (ppm): 
            27.974         -0.104        -0.226
            -2.259         31.882        -1.500
            -0.100         -2.778        28.181


 Diagonalized sT*s matrix:
 
 sDSO             5.577           13.411           38.785  iso=      19.258
 sPSO            21.221           14.767           -5.724  iso=      10.088
        ---------------  ---------------  ---------------
 Total           26.798           28.179           33.060  iso=      29.346

 --------------
 Nucleus   9O :
 --------------

Diamagnetic contribution to the shielding tensor (ppm) : 
           383.016        -11.646       -65.847
           -10.772        370.964        28.111
           -52.225         19.035       292.111

Paramagnetic contribution to the shielding tensor (ppm): 
          -984.490        122.246       534.921
           124.219       -833.632      -227.591
           463.289       -189.761      -216.715

Total shielding tensor (ppm): 
          -601.474        110.600       469.074
           113.447       -462.668      -199.480
           411.064       -170.726        75.395


 Diagonalized sT*s matrix:
 
 sDSO           261.066          364.703          420.321  iso=     348.697
 sPSO            45.676         -767.023        -1313.490  iso=    -678.279
        ---------------  ---------------  ---------------
 Total          306.742         -402.320         -893.169  iso=    -329.582



--------------------------
CHEMICAL SHIELDING SUMMARY (ppm)
--------------------------


  Nucleus  Element    Isotropic     Anisotropy
  -------  -------  ------------   ------------
      0       C          164.313         49.256 
      1       C           -3.230        150.108 
      2       H           29.457          5.451 
      3       H           29.372          5.549 
      4       H           29.276          5.782 
      5       C          164.012         49.896 
      6       H           29.439          5.484 
      7       H           29.248          5.713 
      8       H           29.346          5.571 
      9       O         -329.582       -845.380 



Timings for individual modules:

Sum of individual times         ...       14.450 sec (=   0.241 min)
GTO integral calculation        ...        0.132 sec (=   0.002 min)   0.9 %
SCF iterations                  ...        5.064 sec (=   0.084 min)  35.0 %
SCF-level EPR/NMR calculation   ...        9.254 sec (=   0.154 min)  64.0 %
                             ****ORCA TERMINATED NORMALLY****
TOTAL RUN TIME: 0 days 0 hours 0 minutes 14 seconds 545 msec
