10
	Energy:      17.3850284
C        -11.25727        3.61304        6.71777
C        -11.21605        5.15786        6.94830
H        -10.57986        3.12028        6.01591
H        -12.26999        3.37374        6.34160
H        -11.21980        3.06943        7.67567
C        -10.07417        6.17000        6.61060
H         -9.33179        5.95350        5.83809
H         -9.55166        6.51103        7.51828
H        -10.57082        7.09357        6.25570
O        -12.18984        5.63145        7.52047


