
                                 *****************
                                 * O   R   C   A *
                                 *****************

           --- An Ab Initio, DFT and Semiempirical electronic structure package ---

                  #######################################################
                  #                        -***-                        #
                  #  Department of molecular theory and spectroscopy    #
                  #              Directorship: Frank Neese              #
                  # Max Planck Institute for Chemical Energy Conversion #
                  #                  D-45470 Muelheim/Ruhr              #
                  #                       Germany                       #
                  #                                                     #
                  #                  All rights reserved                #
                  #                        -***-                        #
                  #######################################################


                         Program Version 4.0.0.2 - RELEASE -


 With contributions from (in alphabetic order):
   Daniel Aravena         : Magnetic Properties
   Michael Atanasov       : Ab Initio Ligand Field Theory
   Ute Becker             : Parallelization
   Martin Brehm           : Molecular dynamics
   Dmytro Bykov           : SCF Hessian
   Vijay G. Chilkuri      : MRCI spin determinant printing
   Dipayan Datta          : RHF DLPNO-CCSD density
   Achintya Kumar Dutta   : EOM-CC, STEOM-CC
   Dmitry Ganyushin       : Spin-Orbit,Spin-Spin,Magnetic field MRCI
   Yang Guo               : DLPNO-NEVPT2, CIM, IAO-localization
   Andreas Hansen         : Spin unrestricted coupled pair/coupled cluster methods
   Lee Huntington         : MR-EOM, pCC
   Robert Izsak           : Overlap fitted RIJCOSX, COSX-SCS-MP3, EOM
   Christian Kollmar      : KDIIS, OOCD, Brueckner-CCSD(T), CCSD density
   Simone Kossmann        : Meta GGA functionals, TD-DFT gradient, OOMP2, MP2 Hessian
   Martin Krupicka        : AUTO-CI
   Dagmar Lenk            : GEPOL surface
   Dimitrios Liakos       : Extrapolation schemes; parallel MDCI
   Dimitrios Manganas     : ROCIS; embedding schemes
   Dimitrios Pantazis     : SARC Basis sets
   Taras Petrenko         : DFT Hessian,TD-DFT gradient, ASA, ECA, R-Raman, ABS, FL, XAS/XES, NRVS
   Peter Pinski           : DLPNO-MP2
   Christoph Reimann      : Effective Core Potentials
   Marius Retegan         : Local ZFS, SOC
   Christoph Riplinger    : Optimizer, TS searches, QM/MM, DLPNO-CCSD(T), (RO)-DLPNO pert. Triples
   Tobias Risthaus        : Range-separated hybrids, TD-DFT gradient, RPA, STAB
   Michael Roemelt        : Restricted open shell CIS
   Masaaki Saitow         : Open-shell DLPNO
   Barbara Sandhoefer     : DKH picture change effects
   Kantharuban Sivalingam : CASSCF convergence, NEVPT2, FIC-MRCI
   Georgi Stoychev        : AutoAux
   Boris Wezisla          : Elementary symmetry handling
   Frank Wennmohs         : Technical directorship


 We gratefully acknowledge several colleagues who have allowed us to
 interface, adapt or use parts of their codes:
   Stefan Grimme, W. Hujo, H. Kruse,             : VdW corrections, initial TS optimization,
                  C. Bannwarth                     DFT functionals, gCP, sTDA/sTD-DF
   Ed Valeev                                     : LibInt (2-el integral package), F12 methods
   Garnet Chan, S. Sharma, J. Yang, R. Olivares  : DMRG
   Ulf Ekstrom                                   : XCFun DFT Library
   Mihaly Kallay                                 : mrcc  (arbitrary order and MRCC methods)
   Jiri Pittner, Ondrej Demel                    : Mk-CCSD
   Frank Weinhold                                : gennbo (NPA and NBO analysis)
   Christopher J. Cramer and Donald G. Truhlar   : smd solvation model


 Your calculation uses the libint2 library for the computation of 2-el integrals
 For citations please refer to: http://libint.valeyev.net

 This ORCA versions uses:
   CBLAS   interface :  Fast vector & matrix operations
   LAPACKE interface :  Fast linear algebra routines
   SCALAPACK package :  Parallel linear algebra routines




*****************************************
The coordinations will be read from file: guess.xyz
*****************************************



Information: The global flag for chemical shieldings has been found
             ==>> will calculate the chemical shifts for all atoms in the system

Your calculation utilizes the basis: cc-pVDZ 
       H, B-Ne : Obtained from the ccRepo (grant-hill.group.shef.ac.uk/ccrepo) Feb. 2017
                 T. H. Dunning, Jr., J. Chem. Phys. 90, 1007 (1989)
            He : Obtained from the ccRepo (grant-hill.group.shef.ac.uk/ccrepo) Feb. 2017
                 D. E. Woon, T. H. Dunning, Jr., J. Chem. Phys. 100, 2975 (1994)
  Li-Be, Na-Mg : Obtained from the ccRepo (grant-hill.group.shef.ac.uk/ccrepo) Feb. 2017
                 B. P. Prascher, D. E. Woon, K. A. Peterson, T. H. Dunning, Jr., A. K. Wilson, Theor. Chem. Acc. 128, 69 (2011)
         Al-Ar : Obtained from the ccRepo (grant-hill.group.shef.ac.uk/ccrepo) Feb. 2017
                 D. E. Woon, T. H. Dunning, Jr., J. Chem. Phys. 98, 1358 (1993)
            Ca : Obtained from the Peterson Research Group Website (tyr0.chem.wsu.edu/~kipeters) Feb. 2017
                 J. Koput, K. A. Peterson, J. Phys. Chem. 106, 9595 (2002)
         Sc-Zn : Obtained from the ccRepo (grant-hill.group.shef.ac.uk/ccrepo) Feb. 2017
                 N. B. Balabanov, K. A. Peterson, J. Chem. Phys. 123, 064107 (2005)
                 N. B. Balabanov, K. A. Peterson, J. Chem. Phys. 125, 074110 (2006)
         Ga-Kr : Obtained from the ccRepo (grant-hill.group.shef.ac.uk/ccrepo) Feb. 2017
                 A. K. Wilson, D. E. Woon, K. A. Peterson, T. H. Dunning, Jr., J. Chem. Phys. 110, 7667 (1999)

Your calculation utilizes the auxiliary basis: def2/J
   F. Weigend, Phys. Chem. Chem. Phys. 8, 1057 (2006).

================================================================================
                                        WARNINGS
                       Please study these warnings very carefully!
================================================================================

Warning: TCutStore was < 0. Adjusted to Thresh (uncritical)

INFO   : the flag for use of LIBINT has been found!

CheckInput: checking for shifts: .
================================================================================
                                       INPUT FILE
================================================================================
NAME = /home/jan/SoftwareDevelopment/karminus/output/olyp_ccpvdz/2_6_di_tert_butyl_p_cresol/2_6_di_tert_butyl_p_cresol.in
|  1> !cc-pvdz OLYP NMR
|  2> 
|  3> *xyzfile 0 1 guess.xyz
|  4> 
|  5> 
|  6>                          ****END OF INPUT****
================================================================================

                       ****************************
                       * Single Point Calculation *
                       ****************************

---------------------------------
CARTESIAN COORDINATES (ANGSTROEM)
---------------------------------
  C    -15.339890    3.494010    8.628400
  C    -14.234270    3.074250    7.788380
  C    -13.123110    3.850910    7.512750
  C    -13.144620    5.166900    7.957430
  C    -14.331070    5.759140    8.531860
  C    -15.443270    4.890350    8.944420
  O    -16.542820    5.467840    9.616940
  C    -11.932280    3.274350    6.793740
  H    -11.189450    4.041220    6.548010
  H    -12.243430    2.806140    5.851910
  H    -11.442800    2.519560    7.420840
  C    -16.215620    2.306650    9.123610
  C    -14.249340    7.338540    8.543720
  C    -15.607800    8.025720    8.336420
  H    -16.153090    7.580280    7.498920
  H    -15.479510    9.093160    8.106900
  H    -16.226050    7.988170    9.234550
  C    -13.353920    7.903490    7.371290
  H    -13.602230    7.431910    6.412730
  H    -12.279510    7.766410    7.552900
  H    -13.480810    8.986570    7.242150
  C    -13.614460    7.855460    9.849940
  H    -14.237440    7.621960   10.717140
  H    -13.491130    8.947150    9.815460
  H    -12.619400    7.427600   10.024110
  C    -16.860110    2.522390   10.503570
  H    -16.176320    3.014800   11.201360
  H    -17.146670    1.564040   10.956800
  H    -17.790950    3.088670   10.436560
  C    -17.320260    1.986610    8.100420
  H    -18.040720    2.805600    8.012830
  H    -17.872220    1.089880    8.407750
  H    -16.914790    1.788770    7.100760
  C    -15.361560    0.999670    9.294450
  H    -14.424420    1.198370    9.829310
  H    -15.116880    0.528010    8.334590
  H    -15.902280    0.229850    9.855150
  H    -14.203540    2.061900    7.371350
  H    -12.230440    5.735870    7.783580
  H    -17.341760    5.020960    9.940660

----------------------------
CARTESIAN COORDINATES (A.U.)
----------------------------
  NO LB      ZA    FRAG     MASS         X           Y           Z
   0 C     6.0000    0    12.011  -28.988191    6.602722   16.305313
   1 C     6.0000    0    12.011  -26.898872    5.809491   14.717905
   2 C     6.0000    0    12.011  -24.799084    7.277165   14.197040
   3 C     6.0000    0    12.011  -24.839732    9.764026   15.037363
   4 C     6.0000    0    12.011  -27.081798   10.883197   16.122879
   5 C     6.0000    0    12.011  -29.183551    9.241422   16.902504
   6 O     8.0000    0    15.999  -31.261399   10.332720   18.173383
   7 C     6.0000    0    12.011  -22.548741    6.187625   12.838308
   8 H     1.0000    0     1.008  -21.144996    7.636799   12.373946
   9 H     1.0000    0     1.008  -23.136730    5.302836   11.058507
  10 H     1.0000    0     1.008  -21.623758    4.761278   14.023355
  11 C     6.0000    0    12.011  -30.643081    4.358937   17.241124
  12 C     6.0000    0    12.011  -26.927350   13.867831   16.145291
  13 C     6.0000    0    12.011  -29.494468   15.166413   15.753551
  14 H     1.0000    0     1.008  -30.524916   14.324653   14.170905
  15 H     1.0000    0     1.008  -29.252035   17.183582   15.319821
  16 H     1.0000    0     1.008  -30.662791   15.095454   17.450770
  17 C     6.0000    0    12.011  -25.235252   14.935432   13.929719
  18 H     1.0000    0     1.008  -25.704490   14.044275   12.118303
  19 H     1.0000    0     1.008  -23.204911   14.676388   14.272913
  20 H     1.0000    0     1.008  -25.475039   16.982156   13.685680
  21 C     6.0000    0    12.011  -25.727601   14.844668   18.613689
  22 H     1.0000    0     1.008  -26.904862   14.403417   20.252460
  23 H     1.0000    0     1.008  -25.494541   16.907663   18.548531
  24 H     1.0000    0     1.008  -23.847210   14.036130   18.942823
  25 C     6.0000    0    12.011  -31.860990    4.766626   19.848871
  26 H     1.0000    0     1.008  -30.568815    5.697146   21.167503
  27 H     1.0000    0     1.008  -32.402510    2.955607   20.705351
  28 H     1.0000    0     1.008  -33.620023    5.836740   19.722240
  29 C     6.0000    0    12.011  -32.730548    3.754149   15.307575
  30 H     1.0000    0     1.008  -34.092020    5.301816   15.142054
  31 H     1.0000    0     1.008  -33.773601    2.059575   15.888345
  32 H     1.0000    0     1.008  -31.964321    3.380285   13.418492
  33 C     6.0000    0    12.011  -29.029141    1.889103   17.563965
  34 H     1.0000    0     1.008  -27.258203    2.264591   18.574704
  35 H     1.0000    0     1.008  -28.566763    0.997794   15.750093
  36 H     1.0000    0     1.008  -30.050954    0.434354   18.623535
  37 H     1.0000    0     1.008  -26.840801    3.896426   13.929833
  38 H     1.0000    0     1.008  -23.112182   10.839223   14.708835
  39 H     1.0000    0     1.008  -32.771177    9.488239   18.785125

--------------------------------
INTERNAL COORDINATES (ANGSTROEM)
--------------------------------
 C      0   0   0     0.000000000000     0.00000000     0.00000000
 C      1   0   0     1.450595616428     0.00000000     0.00000000
 C      2   1   0     1.383419386195   124.40965337     0.00000000
 C      3   2   1     1.389256154422   117.10287836   352.85776222
 C      4   3   2     1.445123401305   121.88059148   352.34501203
 C      1   2   3     1.435381991109   117.63831947    14.81892788
 O      6   1   2     1.412369658765   123.96344484   172.38269741
 C      3   2   1     1.505813037067   121.02182004   171.26722764
 H      8   3   2     1.095567998209   112.04210189   173.25886094
 H      8   3   2     1.096849431554   110.43296242    53.61875008
 H      8   3   2     1.096609786797   110.08878443   293.33880871
 C      1   2   3     1.556264677553   113.10274345   197.93983268
 C      5   4   3     1.581557717094   111.70417643   197.54419850
 C     13   5   4     1.536425466464   113.57479176   146.20352357
 H     14  13   5     1.094150002376   111.21283702   313.00353906
 H     14  13   5     1.099347946785   111.05519924   193.86368920
 H     14  13   5     1.090999799221   111.99820936    75.88149093
 C     13   5   4     1.579727059906   112.38715713    28.54429137
 H     18  13   5     1.096760149759   111.50321047    46.95046781
 H     18  13   5     1.098239485085   112.77749823   284.97599385
 H     18  13   5     1.098107689664   111.99429499   167.03360856
 C     13   5   4     1.541586711541   111.25354894   269.86422968
 H     22  13   5     1.093006024869   111.46325308   295.21323871
 H     22  13   5     1.099175243262   110.65026166   175.62051289
 H     22  13   5     1.097061425855   112.16592017    56.35690718
 C     12   1   2     1.538245984653   114.47019273   148.90471985
 H     26  12   1     1.094050847219   111.92754687   320.00277756
 H     26  12   1     1.098166102646   110.92724610   200.55186042
 H     26  12   1     1.091616454667   112.02154177    83.82246367
 C     12   1   2     1.539341712324   110.54367571   272.38382163
 H     30  12   1     1.094293945793   111.71922104   294.14652337
 H     30  12   1     1.096921265816   110.17111086   174.55863611
 H     30  12   1     1.096752798993   112.21321141    55.33242674
 C     12   1   2     1.570605459560   111.31621781    30.94566670
 H     34  12   1     1.097172862041   111.51744067    46.45915608
 H     34  12   1     1.097115617244   112.57284924   284.50318703
 H     34  12   1     1.095164572473   111.84818186   166.78083460
 H      2   1   3     1.095313140750   120.61841670   176.05339767
 H      4   3   2     1.090722584253   115.47640511   176.17294246
 H      7   6   1     0.970979658077   127.67236857   359.88718268

---------------------------
INTERNAL COORDINATES (A.U.)
---------------------------
 C      0   0   0     0.000000000000     0.00000000     0.00000000
 C      1   0   0     2.741228446116     0.00000000     0.00000000
 C      2   1   0     2.614283768266   124.40965337     0.00000000
 C      3   2   1     2.625313661723   117.10287836   352.85776222
 C      4   3   2     2.730887458188   121.88059148   352.34501203
 C      1   2   3     2.712478860759   117.63831947    14.81892788
 O      6   1   2     2.668991854926   123.96344484   172.38269741
 C      3   2   1     2.845574248944   121.02182004   171.26722764
 H      8   3   2     2.070323477704   112.04210189   173.25886094
 H      8   3   2     2.072745035784   110.43296242    53.61875008
 H      8   3   2     2.072292172825   110.08878443   293.33880871
 C      1   2   3     2.940914032471   113.10274345   197.93983268
 C      5   4   3     2.988710950298   111.70417643   197.54419850
 C     13   5   4     2.903423356800   113.57479176   146.20352357
 H     14  13   5     2.067643853920   111.21283702   313.00353906
 H     14  13   5     2.077466545312   111.05519924   193.86368920
 H     14  13   5     2.061690832691   111.99820936    75.88149093
 C     13   5   4     2.985251509567   112.38715713    28.54429137
 H     18  13   5     2.072576317643   111.50321047    46.95046781
 H     18  13   5     2.075371856270   112.77749823   284.97599385
 H     18  13   5     2.075122799019   111.99429499   167.03360856
 C     13   5   4     2.913176696505   111.25354894   269.86422968
 H     22  13   5     2.065482049728   111.46325308   295.21323871
 H     22  13   5     2.077140182951   110.65026166   175.62051289
 H     22  13   5     2.073145646956   112.16592017    56.35690718
 C     12   1   2     2.906863637598   114.47019273   148.90471985
 H     26  12   1     2.067456477828   111.92754687   320.00277756
 H     26  12   1     2.075233183556   110.92724610   200.55186042
 H     26  12   1     2.062856142603   112.02154177    83.82246367
 C     12   1   2     2.908934262813   110.54367571   272.38382163
 H     30  12   1     2.067915867558   111.71922104   294.14652337
 H     30  12   1     2.072880782867   110.17111086   174.55863611
 H     30  12   1     2.072562426709   112.21321141    55.33242674
 C     12   1   2     2.968014183010   111.31621781    30.94566670
 H     34  12   1     2.073356230829   111.51744067    46.45915608
 H     34  12   1     2.073248053839   112.57284924   284.50318703
 H     34  12   1     2.069561113547   111.84818186   166.78083460
 H      2   1   3     2.069841866903   120.61841670   176.05339767
 H      4   3   2     2.061166972321   115.47640511   176.17294246
 H      7   6   1     1.834885635375   127.67236857   359.88718268

---------------------
BASIS SET INFORMATION
---------------------
There are 3 groups of distinct atoms

 Group   1 Type C   : 17s4p1d contracted to 3s2p1d pattern {881/31/1}
 Group   2 Type O   : 17s4p1d contracted to 3s2p1d pattern {881/31/1}
 Group   3 Type H   : 4s1p contracted to 2s1p pattern {31/1}

Atom   0C    basis set group =>   1
Atom   1C    basis set group =>   1
Atom   2C    basis set group =>   1
Atom   3C    basis set group =>   1
Atom   4C    basis set group =>   1
Atom   5C    basis set group =>   1
Atom   6O    basis set group =>   2
Atom   7C    basis set group =>   1
Atom   8H    basis set group =>   3
Atom   9H    basis set group =>   3
Atom  10H    basis set group =>   3
Atom  11C    basis set group =>   1
Atom  12C    basis set group =>   1
Atom  13C    basis set group =>   1
Atom  14H    basis set group =>   3
Atom  15H    basis set group =>   3
Atom  16H    basis set group =>   3
Atom  17C    basis set group =>   1
Atom  18H    basis set group =>   3
Atom  19H    basis set group =>   3
Atom  20H    basis set group =>   3
Atom  21C    basis set group =>   1
Atom  22H    basis set group =>   3
Atom  23H    basis set group =>   3
Atom  24H    basis set group =>   3
Atom  25C    basis set group =>   1
Atom  26H    basis set group =>   3
Atom  27H    basis set group =>   3
Atom  28H    basis set group =>   3
Atom  29C    basis set group =>   1
Atom  30H    basis set group =>   3
Atom  31H    basis set group =>   3
Atom  32H    basis set group =>   3
Atom  33C    basis set group =>   1
Atom  34H    basis set group =>   3
Atom  35H    basis set group =>   3
Atom  36H    basis set group =>   3
Atom  37H    basis set group =>   3
Atom  38H    basis set group =>   3
Atom  39H    basis set group =>   3
-------------------------------
AUXILIARY BASIS SET INFORMATION
-------------------------------
There are 3 groups of distinct atoms

 Group   1 Type C   : 12s5p4d2f1g contracted to 6s4p3d1f1g pattern {711111/2111/211/2/1}
 Group   2 Type O   : 12s5p4d2f1g contracted to 6s4p3d1f1g pattern {711111/2111/211/2/1}
 Group   3 Type H   : 5s2p1d contracted to 3s1p1d pattern {311/2/1}

Atom   0C    basis set group =>   1
Atom   1C    basis set group =>   1
Atom   2C    basis set group =>   1
Atom   3C    basis set group =>   1
Atom   4C    basis set group =>   1
Atom   5C    basis set group =>   1
Atom   6O    basis set group =>   2
Atom   7C    basis set group =>   1
Atom   8H    basis set group =>   3
Atom   9H    basis set group =>   3
Atom  10H    basis set group =>   3
Atom  11C    basis set group =>   1
Atom  12C    basis set group =>   1
Atom  13C    basis set group =>   1
Atom  14H    basis set group =>   3
Atom  15H    basis set group =>   3
Atom  16H    basis set group =>   3
Atom  17C    basis set group =>   1
Atom  18H    basis set group =>   3
Atom  19H    basis set group =>   3
Atom  20H    basis set group =>   3
Atom  21C    basis set group =>   1
Atom  22H    basis set group =>   3
Atom  23H    basis set group =>   3
Atom  24H    basis set group =>   3
Atom  25C    basis set group =>   1
Atom  26H    basis set group =>   3
Atom  27H    basis set group =>   3
Atom  28H    basis set group =>   3
Atom  29C    basis set group =>   1
Atom  30H    basis set group =>   3
Atom  31H    basis set group =>   3
Atom  32H    basis set group =>   3
Atom  33C    basis set group =>   1
Atom  34H    basis set group =>   3
Atom  35H    basis set group =>   3
Atom  36H    basis set group =>   3
Atom  37H    basis set group =>   3
Atom  38H    basis set group =>   3
Atom  39H    basis set group =>   3
------------------------------------------------------------------------------
                           ORCA GTO INTEGRAL CALCULATION
                           -- RI-GTO INTEGRALS CHOSEN --
------------------------------------------------------------------------------

                         BASIS SET STATISTICS AND STARTUP INFO

Gaussian basis set:
 # of primitive gaussian shells          ...  472
 # of primitive gaussian functions       ...  712
 # of contracted shells                  ...  168
 # of contracted basis functions         ...  344
 Highest angular momentum                ...    2
 Maximum contraction depth               ...    8
Auxiliary gaussian basis set:
 # of primitive gaussian shells          ...  576
 # of primitive gaussian functions       ... 1504
 # of contracted shells                  ...  360
 # of contracted aux-basis functions     ... 1048
 Highest angular momentum                ...    4
 Maximum contraction depth               ...    7
Ratio of auxiliary to basis functions    ...  3.05
Integral package used                  ... LIBINT
 One Electron integrals                  ... done
 Ordering auxiliary basis shells         ... done
 Integral threshhold             Thresh  ...  1.000e-10
 Primitive cut-off               TCut    ...  1.000e-11
 Pre-screening matrix                    ... done
 Shell pair data                         ... 
 Ordering of the shell pairs             ... done (   0.002 sec) 12066 of 14196 pairs
 Determination of significant pairs      ... done (   0.000 sec)
 Creation of shell pair data             ... done (   0.010 sec)
 Storage of shell pair data              ... done (   0.004 sec)
 Shell pair data done in (   0.016 sec)
 Computing two index integrals           ... done
 Cholesky decomposition of the V-matrix  ... done


Timings:
 Total evaluation time                   ...   0.796 sec (  0.013 min)
 One electron matrix time                ...   0.117 sec (  0.002 min) = 14.7%
 Schwartz matrix evaluation time         ...   0.493 sec (  0.008 min) = 61.9%
 Two index repulsion integral time       ...   0.020 sec (  0.000 min) =  2.6%
 Cholesky decomposition of V             ...   0.134 sec (  0.002 min) = 16.9%
 Three index repulsion integral time     ...   0.000 sec (  0.000 min) =  0.0%

-------------------------------------------------------------------------------
                                 ORCA SCF
-------------------------------------------------------------------------------

------------
SCF SETTINGS
------------
Hamiltonian:
 Density Functional     Method          .... DFT(GTOs)
 Exchange Functional    Exchange        .... OPTX
 Correlation Functional Correlation     .... LYP
 Gradients option       PostSCFGGA      .... off
 RI-approximation to the Coulomb term is turned on
   Number of auxiliary basis functions  .... 1048


General Settings:
 Integral files         IntName         .... /home/jan/SoftwareDevelopment/karminus/output/olyp_ccpvdz/2_6_di_tert_butyl_p_cresol/2_6_di_tert_butyl_p_cresol
 Hartree-Fock type      HFTyp           .... RHF
 Total Charge           Charge          ....    0
 Multiplicity           Mult            ....    1
 Number of Electrons    NEL             ....  122
 Basis Dimension        Dim             ....  344
 Nuclear Repulsion      ENuc            ....   1155.7831769471 Eh

Convergence Acceleration:
 DIIS                   CNVDIIS         .... on
   Start iteration      DIISMaxIt       ....    12
   Startup error        DIISStart       ....  0.200000
   # of expansion vecs  DIISMaxEq       ....     5
   Bias factor          DIISBfac        ....   1.050
   Max. coefficient     DIISMaxC        ....  10.000
 Newton-Raphson         CNVNR           .... off
 SOSCF                  CNVSOSCF        .... on
   Start iteration      SOSCFMaxIt      ....   150
   Startup grad/error   SOSCFStart      ....  0.003300
 Level Shifting         CNVShift        .... on
   Level shift para.    LevelShift      ....    0.2500
   Turn off err/grad.   ShiftErr        ....    0.0010
 Zerner damping         CNVZerner       .... off
 Static damping         CNVDamp         .... on
   Fraction old density DampFac         ....    0.7000
   Max. Damping (<1)    DampMax         ....    0.9800
   Min. Damping (>=0)   DampMin         ....    0.0000
   Turn off err/grad.   DampErr         ....    0.1000
 Fernandez-Rico         CNVRico         .... off

SCF Procedure:
 Maximum # iterations   MaxIter         ....   125
 SCF integral mode      SCFMode         .... Direct
   Integral package                     .... LIBINT
 Reset frequeny         DirectResetFreq ....    20
 Integral Threshold     Thresh          ....  1.000e-10 Eh
 Primitive CutOff       TCut            ....  1.000e-11 Eh

Convergence Tolerance:
 Convergence Check Mode ConvCheckMode   .... Total+1el-Energy
 Convergence forced     ConvForced      .... 0
 Energy Change          TolE            ....  1.000e-06 Eh
 1-El. energy change                    ....  1.000e-03 Eh
 Orbital Gradient       TolG            ....  5.000e-05
 Orbital Rotation angle TolX            ....  5.000e-05
 DIIS Error             TolErr          ....  1.000e-06


Diagonalization of the overlap matrix:
Smallest eigenvalue                        ... 3.041e-04
Time for diagonalization                   ...    0.017 sec
Threshold for overlap eigenvalues          ... 1.000e-08
Number of eigenvalues below threshold      ... 0
Time for construction of square roots      ...    0.006 sec
Total time needed                          ...    0.023 sec

-------------------
DFT GRID GENERATION
-------------------

General Integration Accuracy     IntAcc      ...  4.340
Radial Grid Type                 RadialGrid  ... Gauss-Chebyshev
Angular Grid (max. acc.)         AngularGrid ... Lebedev-110
Angular grid pruning method      GridPruning ... 3 (G Style)
Weight generation scheme         WeightScheme... Becke
Basis function cutoff            BFCut       ...    1.0000e-10
Integration weight cutoff        WCut        ...    1.0000e-14
Grids for H and He will be reduced by one unit

# of grid points (after initial pruning)     ...  45612 (   0.0 sec)
# of grid points (after weights+screening)   ...  40267 (   0.3 sec)
nearest neighbour list constructed           ...    0.0 sec
Grid point re-assignment to atoms done       ...    0.0 sec
Grid point division into batches done        ...    0.0 sec
Reduced shell lists constructed in    1.8 sec

Total number of grid points                  ...    40267
Total number of batches                      ...      650
Average number of points per batch           ...       61
Average number of grid points per atom       ...     1007
Average number of shells per batch           ...    95.52 (56.86%)
Average number of basis functions per batch  ...   185.43 (53.90%)
Average number of large shells per batch     ...    60.94 (63.80%)
Average number of large basis fcns per batch ...   121.48 (65.51%)
Maximum spatial batch extension              ...  20.71, 19.62, 21.37 au
Average spatial batch extension              ...   3.39,  3.16,  3.48 au

Time for grid setup =    2.145 sec

------------------------------
INITIAL GUESS: MODEL POTENTIAL
------------------------------
Loading Hartree-Fock densities                     ... done
Calculating cut-offs                               ... done
Setting up the integral package                    ... done
Initializing the effective Hamiltonian             ... done
Starting the Coulomb interaction                   ... done (   3.1 sec)
Reading the grid                                   ... done
Mapping shells                                     ... done
Starting the XC term evaluation                    ... done (   1.8 sec)
  promolecular density results
     # of electrons  =    121.995608225
     EX              =    -92.346801433
     EC              =     -4.000493610
     EX+EC           =    -96.347295042
Transforming the Hamiltonian                       ... done (   0.0 sec)
Diagonalizing the Hamiltonian                      ... done (   0.0 sec)
Back transforming the eigenvectors                 ... done (   0.0 sec)
Now organizing SCF variables                       ... done
                      ------------------
                      INITIAL GUESS DONE (   7.3 sec)
                      ------------------
--------------
SCF ITERATIONS
--------------
ITER       Energy         Delta-E        Max-DP      RMS-DP      [F,P]     Damp
               ***  Starting incremental Fock matrix formation  ***
  0   -660.5712360012   0.000000000000 0.06205598  0.00155306  0.1938701 0.7000
  1   -660.7759535315  -0.204717530371 0.03515768  0.00118169  0.0744781 0.7000
                               ***Turning on DIIS***
  2   -660.8475400780  -0.071586546449 0.05839295  0.00188037  0.0208015 0.0000
  3   -660.9448096795  -0.097269601566 0.02428221  0.00079418  0.0459658 0.0000
  4   -660.9809108060  -0.036101126499 0.00984474  0.00030885  0.0107032 0.0000
  5   -660.9836807956  -0.002769989517 0.00394182  0.00011472  0.0061265 0.0000
                      *** Initiating the SOSCF procedure ***
                           *** Shutting down DIIS ***
                      *** Re-Reading the Fockian *** 
                      *** Removing any level shift *** 
ITER      Energy       Delta-E        Grad      Rot      Max-DP    RMS-DP
  6   -660.98395072  -0.0002699269  0.000506  0.000506  0.001280  0.000037
               *** Restarting incremental Fock matrix formation ***
  7   -660.98396732  -0.0000165990  0.000214  0.001161  0.001748  0.000030
  8   -660.98396109   0.0000062330  0.000815  0.001670  0.001223  0.000017
  9   -660.98397117  -0.0000100772  0.000182  0.000867  0.000408  0.000011
 10   -660.98396987   0.0000012913  0.000302  0.000614  0.000324  0.000007
 11   -660.98397163  -0.0000017582  0.000052  0.000182  0.000291  0.000004
 12   -660.98397139   0.0000002384  0.000077  0.000120  0.000196  0.000003
                  ***Gradient check signals convergence***
              ***Rediagonalizing the Fockian in SOSCF/NRSCF***

               *****************************************************
               *                     SUCCESS                       *
               *           SCF CONVERGED AFTER  13 CYCLES          *
               *****************************************************

Setting up the final grid:

General Integration Accuracy     IntAcc      ...  4.670
Radial Grid Type                 RadialGrid  ... Gauss-Chebyshev
Angular Grid (max. acc.)         AngularGrid ... Lebedev-302
Angular grid pruning method      GridPruning ... 3 (G Style)
Weight generation scheme         WeightScheme... Becke
Basis function cutoff            BFCut       ...    1.0000e-10
Integration weight cutoff        WCut        ...    1.0000e-14
Grids for H and He will be reduced by one unit

# of grid points (after initial pruning)     ... 180848 (   0.1 sec)
# of grid points (after weights+screening)   ... 156073 (   1.6 sec)
nearest neighbour list constructed           ...    0.0 sec
Grid point re-assignment to atoms done       ...    0.0 sec
Grid point division into batches done        ...    0.4 sec
Reduced shell lists constructed in    6.6 sec

Total number of grid points                  ...   156073
Total number of batches                      ...     2456
Average number of points per batch           ...       63
Average number of grid points per atom       ...     3902
Average number of shells per batch           ...    86.27 (51.35%)
Average number of basis functions per batch  ...   166.64 (48.44%)
Average number of large shells per batch     ...    53.69 (62.24%)
Average number of large basis fcns per batch ...   106.74 (64.06%)
Maximum spatial batch extension              ...  21.64, 21.31, 19.91 au
Average spatial batch extension              ...   2.20,  2.12,  2.22 au

Final grid set up in    8.3 sec
Final integration                            ... done (   5.9 sec)
Change in XC energy                          ...     0.001898804
Integrated number of electrons               ...   121.999761112
Previous integrated no of electrons          ...   122.003953661

----------------
TOTAL SCF ENERGY
----------------

Total Energy       :         -660.98207294 Eh          -17986.23661 eV

Components:
Nuclear Repulsion  :         1155.78317695 Eh           31450.45916 eV
Electronic Energy  :        -1816.76524988 Eh          -49436.69576 eV
One Electron Energy:        -3189.25297166 Eh          -86783.98537 eV
Two Electron Energy:         1372.48772178 Eh           37347.28961 eV

Virial components:
Potential Energy   :        -1317.12179445 Eh          -35840.70613 eV
Kinetic Energy     :          656.13972151 Eh           17854.46953 eV
Virial Ratio       :            2.00738006


DFT components:
N(Alpha)           :       60.999880555782 electrons
N(Beta)            :       60.999880555782 electrons
N(Total)           :      121.999761111564 electrons
E(X)               :      -94.693968476488 Eh       
E(C)               :       -4.017417400238 Eh       
E(XC)              :      -98.711385876726 Eh       

---------------
SCF CONVERGENCE
---------------

  Last Energy change         ...   -3.4782e-07  Tolerance :   1.0000e-06
  Last MAX-Density change    ...    2.0257e-05  Tolerance :   1.0000e-05
  Last RMS-Density change    ...    5.7500e-07  Tolerance :   1.0000e-06
  Last Orbital Gradient      ...    4.2423e-06  Tolerance :   5.0000e-05
  Last Orbital Rotation      ...    2.8701e-05  Tolerance :   5.0000e-05

             **** THE GBW FILE WAS UPDATED (/home/jan/SoftwareDevelopment/karminus/output/olyp_ccpvdz/2_6_di_tert_butyl_p_cresol/2_6_di_tert_butyl_p_cresol.gbw) ****
             **** DENSITY FILE WAS UPDATED (/home/jan/SoftwareDevelopment/karminus/output/olyp_ccpvdz/2_6_di_tert_butyl_p_cresol/2_6_di_tert_butyl_p_cresol.scfp.tmp) ****
             **** ENERGY FILE WAS UPDATED (/home/jan/SoftwareDevelopment/karminus/output/olyp_ccpvdz/2_6_di_tert_butyl_p_cresol/2_6_di_tert_butyl_p_cresol.en.tmp) ****
----------------
ORBITAL ENERGIES
----------------

  NO   OCC          E(Eh)            E(eV) 
   0   2.0000     -18.787288      -511.2281 
   1   2.0000      -9.979633      -271.5596 
   2   2.0000      -9.939450      -270.4662 
   3   2.0000      -9.928914      -270.1795 
   4   2.0000      -9.922071      -269.9933 
   5   2.0000      -9.920098      -269.9396 
   6   2.0000      -9.908095      -269.6130 
   7   2.0000      -9.905253      -269.5356 
   8   2.0000      -9.903222      -269.4804 
   9   2.0000      -9.902284      -269.4549 
  10   2.0000      -9.901455      -269.4323 
  11   2.0000      -9.899798      -269.3872 
  12   2.0000      -9.899071      -269.3674 
  13   2.0000      -9.894138      -269.2332 
  14   2.0000      -9.891154      -269.1520 
  15   2.0000      -9.885017      -268.9850 
  16   2.0000      -0.942071       -25.6350 
  17   2.0000      -0.769426       -20.9372 
  18   2.0000      -0.743527       -20.2324 
  19   2.0000      -0.723914       -19.6987 
  20   2.0000      -0.679656       -18.4944 
  21   2.0000      -0.644885       -17.5482 
  22   2.0000      -0.620748       -16.8914 
  23   2.0000      -0.616745       -16.7825 
  24   2.0000      -0.610116       -16.6021 
  25   2.0000      -0.604228       -16.4419 
  26   2.0000      -0.598417       -16.2838 
  27   2.0000      -0.549549       -14.9540 
  28   2.0000      -0.536331       -14.5943 
  29   2.0000      -0.501912       -13.6577 
  30   2.0000      -0.462837       -12.5944 
  31   2.0000      -0.459846       -12.5130 
  32   2.0000      -0.414367       -11.2755 
  33   2.0000      -0.405424       -11.0322 
  34   2.0000      -0.391807       -10.6616 
  35   2.0000      -0.389586       -10.6012 
  36   2.0000      -0.381197       -10.3729 
  37   2.0000      -0.376083       -10.2337 
  38   2.0000      -0.368611       -10.0304 
  39   2.0000      -0.363298        -9.8859 
  40   2.0000      -0.361379        -9.8336 
  41   2.0000      -0.348072        -9.4715 
  42   2.0000      -0.336454        -9.1554 
  43   2.0000      -0.334675        -9.1070 
  44   2.0000      -0.329147        -8.9565 
  45   2.0000      -0.324003        -8.8166 
  46   2.0000      -0.320269        -8.7150 
  47   2.0000      -0.315133        -8.5752 
  48   2.0000      -0.311194        -8.4680 
  49   2.0000      -0.303045        -8.2463 
  50   2.0000      -0.298239        -8.1155 
  51   2.0000      -0.292216        -7.9516 
  52   2.0000      -0.289068        -7.8659 
  53   2.0000      -0.282560        -7.6889 
  54   2.0000      -0.275827        -7.5056 
  55   2.0000      -0.273844        -7.4517 
  56   2.0000      -0.261544        -7.1170 
  57   2.0000      -0.255422        -6.9504 
  58   2.0000      -0.245196        -6.6721 
  59   2.0000      -0.187480        -5.1016 
  60   2.0000      -0.172444        -4.6924 
  61   0.0000      -0.032204        -0.8763 
  62   0.0000      -0.004652        -0.1266 
  63   0.0000       0.014158         0.3853 
  64   0.0000       0.044157         1.2016 
  65   0.0000       0.053902         1.4667 
  66   0.0000       0.062783         1.7084 
  67   0.0000       0.073634         2.0037 
  68   0.0000       0.081155         2.2083 
  69   0.0000       0.084119         2.2890 
  70   0.0000       0.087719         2.3870 
  71   0.0000       0.095357         2.5948 
  72   0.0000       0.099073         2.6959 
  73   0.0000       0.103792         2.8243 
  74   0.0000       0.107221         2.9176 
  75   0.0000       0.112422         3.0592 
  76   0.0000       0.115632         3.1465 
  77   0.0000       0.118120         3.2142 
  78   0.0000       0.124060         3.3758 
  79   0.0000       0.126729         3.4485 
  80   0.0000       0.133243         3.6257 
  81   0.0000       0.138638         3.7725 
  82   0.0000       0.144753         3.9389 
  83   0.0000       0.146533         3.9874 
  84   0.0000       0.151072         4.1109 
  85   0.0000       0.154787         4.2120 
  86   0.0000       0.164326         4.4715 
  87   0.0000       0.170869         4.6496 
  88   0.0000       0.175114         4.7651 
  89   0.0000       0.178684         4.8622 
  90   0.0000       0.192687         5.2433 
  91   0.0000       0.193933         5.2772 
  92   0.0000       0.210403         5.7254 
  93   0.0000       0.217894         5.9292 
  94   0.0000       0.223020         6.0687 
  95   0.0000       0.230951         6.2845 
  96   0.0000       0.251056         6.8316 
  97   0.0000       0.259330         7.0567 
  98   0.0000       0.285510         7.7691 
  99   0.0000       0.303366         8.2550 
 100   0.0000       0.326399         8.8818 
 101   0.0000       0.335653         9.1336 
 102   0.0000       0.358667         9.7598 
 103   0.0000       0.370155        10.0724 
 104   0.0000       0.375195        10.2096 
 105   0.0000       0.380536        10.3549 
 106   0.0000       0.387429        10.5425 
 107   0.0000       0.409976        11.1560 
 108   0.0000       0.414698        11.2845 
 109   0.0000       0.419632        11.4188 
 110   0.0000       0.426535        11.6066 
 111   0.0000       0.435019        11.8375 
 112   0.0000       0.442074        12.0295 
 113   0.0000       0.457239        12.4421 
 114   0.0000       0.468340        12.7442 
 115   0.0000       0.471696        12.8355 
 116   0.0000       0.477968        13.0062 
 117   0.0000       0.492279        13.3956 
 118   0.0000       0.504300        13.7227 
 119   0.0000       0.509893        13.8749 
 120   0.0000       0.514347        13.9961 
 121   0.0000       0.520776        14.1710 
 122   0.0000       0.525698        14.3050 
 123   0.0000       0.532396        14.4872 
 124   0.0000       0.542378        14.7589 
 125   0.0000       0.545655        14.8480 
 126   0.0000       0.549970        14.9654 
 127   0.0000       0.557616        15.1735 
 128   0.0000       0.561752        15.2860 
 129   0.0000       0.569001        15.4833 
 130   0.0000       0.573480        15.6052 
 131   0.0000       0.575992        15.6735 
 132   0.0000       0.582606        15.8535 
 133   0.0000       0.588546        16.0151 
 134   0.0000       0.597452        16.2575 
 135   0.0000       0.602661        16.3992 
 136   0.0000       0.609013        16.5721 
 137   0.0000       0.612547        16.6682 
 138   0.0000       0.613945        16.7063 
 139   0.0000       0.618048        16.8179 
 140   0.0000       0.620185        16.8761 
 141   0.0000       0.629039        17.1170 
 142   0.0000       0.631434        17.1822 
 143   0.0000       0.636726        17.3262 
 144   0.0000       0.640068        17.4171 
 145   0.0000       0.644597        17.5404 
 146   0.0000       0.651527        17.7290 
 147   0.0000       0.658020        17.9056 
 148   0.0000       0.663939        18.0667 
 149   0.0000       0.667665        18.1681 
 150   0.0000       0.674767        18.3614 
 151   0.0000       0.678538        18.4640 
 152   0.0000       0.684625        18.6296 
 153   0.0000       0.689173        18.7533 
 154   0.0000       0.700024        19.0486 
 155   0.0000       0.702206        19.1080 
 156   0.0000       0.713037        19.4027 
 157   0.0000       0.721416        19.6307 
 158   0.0000       0.725677        19.7467 
 159   0.0000       0.728837        19.8327 
 160   0.0000       0.734580        19.9889 
 161   0.0000       0.741189        20.1688 
 162   0.0000       0.750505        20.4223 
 163   0.0000       0.762145        20.7390 
 164   0.0000       0.771893        21.0043 
 165   0.0000       0.785034        21.3619 
 166   0.0000       0.806973        21.9588 
 167   0.0000       0.809634        22.0313 
 168   0.0000       0.815748        22.1976 
 169   0.0000       0.827123        22.5072 
 170   0.0000       0.829102        22.5610 
 171   0.0000       0.861307        23.4374 
 172   0.0000       0.872399        23.7392 
 173   0.0000       0.909336        24.7443 
 174   0.0000       0.944791        25.7091 
 175   0.0000       0.955392        25.9975 
 176   0.0000       0.965860        26.2824 
 177   0.0000       0.973500        26.4903 
 178   0.0000       1.005396        27.3582 
 179   0.0000       1.010861        27.5069 
 180   0.0000       1.022882        27.8340 
 181   0.0000       1.028766        27.9942 
 182   0.0000       1.039887        28.2968 
 183   0.0000       1.051791        28.6207 
 184   0.0000       1.067846        29.0576 
 185   0.0000       1.078264        29.3411 
 186   0.0000       1.091452        29.6999 
 187   0.0000       1.102112        29.9900 
 188   0.0000       1.116615        30.3846 
 189   0.0000       1.130143        30.7528 
 190   0.0000       1.141312        31.0567 
 191   0.0000       1.181849        32.1597 
 192   0.0000       1.207023        32.8448 
 193   0.0000       1.217169        33.1208 
 194   0.0000       1.229566        33.4582 
 195   0.0000       1.250504        34.0279 
 196   0.0000       1.251651        34.0591 
 197   0.0000       1.273520        34.6543 
 198   0.0000       1.290342        35.1120 
 199   0.0000       1.305293        35.5188 
 200   0.0000       1.313737        35.7486 
 201   0.0000       1.316509        35.8240 
 202   0.0000       1.320990        35.9460 
 203   0.0000       1.324383        36.0383 
 204   0.0000       1.332598        36.2618 
 205   0.0000       1.347174        36.6585 
 206   0.0000       1.348073        36.6829 
 207   0.0000       1.357881        36.9498 
 208   0.0000       1.372934        37.3594 
 209   0.0000       1.377070        37.4720 
 210   0.0000       1.384384        37.6710 
 211   0.0000       1.387944        37.7679 
 212   0.0000       1.396388        37.9976 
 213   0.0000       1.404653        38.2225 
 214   0.0000       1.417498        38.5721 
 215   0.0000       1.419608        38.6295 
 216   0.0000       1.422891        38.7188 
 217   0.0000       1.436989        39.1025 
 218   0.0000       1.447579        39.3906 
 219   0.0000       1.456749        39.6402 
 220   0.0000       1.468374        39.9565 
 221   0.0000       1.479042        40.2468 
 222   0.0000       1.488977        40.5171 
 223   0.0000       1.498031        40.7635 
 224   0.0000       1.504630        40.9431 
 225   0.0000       1.507393        41.0182 
 226   0.0000       1.509478        41.0750 
 227   0.0000       1.515333        41.2343 
 228   0.0000       1.527834        41.5745 
 229   0.0000       1.533169        41.7196 
 230   0.0000       1.544881        42.0384 
 231   0.0000       1.561768        42.4979 
 232   0.0000       1.566023        42.6136 
 233   0.0000       1.575422        42.8694 
 234   0.0000       1.582223        43.0545 
 235   0.0000       1.590510        43.2800 
 236   0.0000       1.599389        43.5216 
 237   0.0000       1.603765        43.6407 
 238   0.0000       1.608903        43.7805 
 239   0.0000       1.627332        44.2820 
 240   0.0000       1.631208        44.3874 
 241   0.0000       1.634079        44.4655 
 242   0.0000       1.639922        44.6245 
 243   0.0000       1.641196        44.6592 
 244   0.0000       1.642833        44.7038 
 245   0.0000       1.652330        44.9622 
 246   0.0000       1.661970        45.2245 
 247   0.0000       1.669895        45.4402 
 248   0.0000       1.674412        45.5631 
 249   0.0000       1.684464        45.8366 
 250   0.0000       1.687342        45.9149 
 251   0.0000       1.697850        46.2009 
 252   0.0000       1.707511        46.4637 
 253   0.0000       1.712157        46.5902 
 254   0.0000       1.722867        46.8816 
 255   0.0000       1.728345        47.0306 
 256   0.0000       1.729971        47.0749 
 257   0.0000       1.734293        47.1925 
 258   0.0000       1.736373        47.2491 
 259   0.0000       1.749341        47.6020 
 260   0.0000       1.757733        47.8304 
 261   0.0000       1.771906        48.2160 
 262   0.0000       1.789867        48.7048 
 263   0.0000       1.794534        48.8318 
 264   0.0000       1.797110        48.9018 
 265   0.0000       1.809432        49.2372 
 266   0.0000       1.819155        49.5017 
 267   0.0000       1.843594        50.1668 
 268   0.0000       1.848402        50.2976 
 269   0.0000       1.863652        50.7125 
 270   0.0000       1.880095        51.1600 
 271   0.0000       1.898555        51.6623 
 272   0.0000       1.914272        52.0900 
 273   0.0000       1.916146        52.1410 
 274   0.0000       1.918286        52.1992 
 275   0.0000       1.930340        52.5272 
 276   0.0000       1.939744        52.7831 
 277   0.0000       1.952415        53.1279 
 278   0.0000       1.956553        53.2405 
 279   0.0000       1.969395        53.5900 
 280   0.0000       1.984519        54.0015 
 281   0.0000       1.984842        54.0103 
 282   0.0000       1.988626        54.1133 
 283   0.0000       1.998466        54.3810 
 284   0.0000       2.011998        54.7492 
 285   0.0000       2.015961        54.8571 
 286   0.0000       2.034438        55.3599 
 287   0.0000       2.041636        55.5557 
 288   0.0000       2.051106        55.8134 
 289   0.0000       2.060273        56.0629 
 290   0.0000       2.070967        56.3539 
 291   0.0000       2.105105        57.2828 
 292   0.0000       2.118053        57.6352 
 293   0.0000       2.131589        58.0035 
 294   0.0000       2.144939        58.3668 
 295   0.0000       2.146207        58.4013 
 296   0.0000       2.153468        58.5988 
 297   0.0000       2.158232        58.7285 
 298   0.0000       2.177403        59.2502 
 299   0.0000       2.193972        59.7010 
 300   0.0000       2.213571        60.2343 
 301   0.0000       2.229938        60.6797 
 302   0.0000       2.234496        60.8037 
 303   0.0000       2.258997        61.4704 
 304   0.0000       2.264198        61.6120 
 305   0.0000       2.283600        62.1399 
 306   0.0000       2.324457        63.2517 
 307   0.0000       2.333840        63.5070 
 308   0.0000       2.337965        63.6193 
 309   0.0000       2.356738        64.1301 
 310   0.0000       2.362933        64.2987 
 311   0.0000       2.365066        64.3567 
 312   0.0000       2.371273        64.5256 
 313   0.0000       2.373954        64.5986 
 314   0.0000       2.387619        64.9704 
 315   0.0000       2.392211        65.0954 
 316   0.0000       2.396327        65.2074 
 317   0.0000       2.408731        65.5449 
 318   0.0000       2.416799        65.7644 
 319   0.0000       2.432985        66.2049 
 320   0.0000       2.439301        66.3768 
 321   0.0000       2.442691        66.4690 
 322   0.0000       2.448854        66.6367 
 323   0.0000       2.453950        66.7754 
 324   0.0000       2.467926        67.1557 
 325   0.0000       2.469508        67.1987 
 326   0.0000       2.483579        67.5816 
 327   0.0000       2.485354        67.6299 
 328   0.0000       2.491755        67.8041 
 329   0.0000       2.515730        68.4565 
 330   0.0000       2.555115        69.5282 
 331   0.0000       2.584063        70.3159 
 332   0.0000       2.599258        70.7294 
 333   0.0000       2.611852        71.0721 
 334   0.0000       2.661574        72.4251 
 335   0.0000       2.683251        73.0150 
 336   0.0000       2.690049        73.2000 
 337   0.0000       2.719988        74.0146 
 338   0.0000       2.743838        74.6636 
 339   0.0000       2.896211        78.8099 
 340   0.0000       2.937460        79.9323 
 341   0.0000       3.035424        82.5981 
 342   0.0000       3.333119        90.6988 
 343   0.0000       3.703823       100.7862 

                    ********************************
                    * MULLIKEN POPULATION ANALYSIS *
                    ********************************

-----------------------
MULLIKEN ATOMIC CHARGES
-----------------------
   0 C :    0.067977
   1 C :    0.075273
   2 C :   -0.161412
   3 C :    0.091017
   4 C :    0.052501
   5 C :    0.007437
   6 O :   -0.229182
   7 C :    0.118439
   8 H :   -0.001875
   9 H :    0.018767
  10 H :    0.026089
  11 C :   -0.410127
  12 C :   -0.380232
  13 C :    0.139760
  14 H :   -0.005279
  15 H :   -0.009872
  16 H :    0.003429
  17 C :    0.102057
  18 H :    0.004482
  19 H :    0.000290
  20 H :   -0.002594
  21 C :    0.137684
  22 H :    0.000513
  23 H :   -0.005476
  24 H :   -0.007287
  25 C :    0.122645
  26 H :    0.013943
  27 H :    0.002320
  28 H :   -0.022207
  29 C :    0.148662
  30 H :   -0.003525
  31 H :   -0.007327
  32 H :   -0.001004
  33 C :    0.123283
  34 H :    0.009203
  35 H :   -0.000464
  36 H :   -0.005813
  37 H :   -0.077362
  38 H :   -0.066840
  39 H :    0.132108
Sum of atomic charges:    0.0000000

--------------------------------
MULLIKEN REDUCED ORBITAL CHARGES
--------------------------------
  0 C s       :     3.164030  s :     3.164030
      pz      :     0.958174  p :     2.694683
      px      :     0.936035
      py      :     0.800474
      dz2     :     0.011209  d :     0.073311
      dxz     :     0.009022
      dyz     :     0.016587
      dx2y2   :     0.018058
      dxy     :     0.018434
  1 C s       :     3.220847  s :     3.220847
      pz      :     0.919934  p :     2.641592
      px      :     0.903796
      py      :     0.817862
      dz2     :     0.008839  d :     0.062288
      dxz     :     0.012285
      dyz     :     0.008687
      dx2y2   :     0.019635
      dxy     :     0.012841
  2 C s       :     3.144195  s :     3.144195
      pz      :     0.974098  p :     2.925659
      px      :     0.975010
      py      :     0.976551
      dz2     :     0.010790  d :     0.091558
      dxz     :     0.013998
      dyz     :     0.016106
      dx2y2   :     0.024796
      dxy     :     0.025869
  3 C s       :     3.206550  s :     3.206550
      pz      :     0.969823  p :     2.639698
      px      :     0.781967
      py      :     0.887908
      dz2     :     0.007833  d :     0.062735
      dxz     :     0.006508
      dyz     :     0.011819
      dx2y2   :     0.015712
      dxy     :     0.020862
  4 C s       :     3.187802  s :     3.187802
      pz      :     0.988704  p :     2.690215
      px      :     0.877254
      py      :     0.824258
      dz2     :     0.007774  d :     0.069481
      dxz     :     0.009780
      dyz     :     0.011994
      dx2y2   :     0.019769
      dxy     :     0.020165
  5 C s       :     3.316501  s :     3.316501
      pz      :     0.921426  p :     2.550932
      px      :     0.777778
      py      :     0.851728
      dz2     :     0.017514  d :     0.125130
      dxz     :     0.021665
      dyz     :     0.020081
      dx2y2   :     0.030290
      dxy     :     0.035581
  6 O s       :     3.713591  s :     3.713591
      pz      :     1.669460  p :     4.505702
      px      :     1.213887
      py      :     1.622355
      dz2     :     0.001657  d :     0.009888
      dxz     :     0.001583
      dyz     :     0.001833
      dx2y2   :     0.001087
      dxy     :     0.003728
  7 C s       :     2.946526  s :     2.946526
      pz      :     0.963184  p :     2.894528
      px      :     0.967184
      py      :     0.964160
      dz2     :     0.007382  d :     0.040507
      dxz     :     0.008795
      dyz     :     0.007514
      dx2y2   :     0.005491
      dxy     :     0.011324
  8 H s       :     0.970177  s :     0.970177
      pz      :     0.007463  p :     0.031697
      px      :     0.011966
      py      :     0.012268
  9 H s       :     0.949122  s :     0.949122
      pz      :     0.015906  p :     0.032111
      px      :     0.006882
      py      :     0.009323
 10 H s       :     0.941798  s :     0.941798
      pz      :     0.010533  p :     0.032114
      px      :     0.008868
      py      :     0.012713
 11 C s       :     3.336515  s :     3.336515
      pz      :     0.998529  p :     2.967281
      px      :     0.989567
      py      :     0.979184
      dz2     :     0.022537  d :     0.106332
      dxz     :     0.023204
      dyz     :     0.019071
      dx2y2   :     0.017231
      dxy     :     0.024289
 12 C s       :     3.337147  s :     3.337147
      pz      :     0.978314  p :     2.938253
      px      :     1.016987
      py      :     0.942952
      dz2     :     0.021801  d :     0.104831
      dxz     :     0.022726
      dyz     :     0.019107
      dx2y2   :     0.023249
      dxy     :     0.017948
 13 C s       :     2.999291  s :     2.999291
      pz      :     0.953899  p :     2.821222
      px      :     0.944211
      py      :     0.923112
      dz2     :     0.005490  d :     0.039726
      dxz     :     0.013076
      dyz     :     0.002870
      dx2y2   :     0.011553
      dxy     :     0.006737
 14 H s       :     0.973296  s :     0.973296
      pz      :     0.013914  p :     0.031983
      px      :     0.009269
      py      :     0.008800
 15 H s       :     0.978119  s :     0.978119
      pz      :     0.008140  p :     0.031753
      px      :     0.005823
      py      :     0.017789
 16 H s       :     0.964193  s :     0.964193
      pz      :     0.014825  p :     0.032378
      px      :     0.010125
      py      :     0.007428
 17 C s       :     3.037910  s :     3.037910
      pz      :     0.939791  p :     2.821383
      px      :     0.942272
      py      :     0.939320
      dz2     :     0.011823  d :     0.038650
      dxz     :     0.005866
      dyz     :     0.005826
      dx2y2   :     0.012167
      dxy     :     0.002968
 18 H s       :     0.963906  s :     0.963906
      pz      :     0.015353  p :     0.031612
      px      :     0.007099
      py      :     0.009159
 19 H s       :     0.967705  s :     0.967705
      pz      :     0.006392  p :     0.032005
      px      :     0.017786
      py      :     0.007827
 20 H s       :     0.970778  s :     0.970778
      pz      :     0.006442  p :     0.031816
      px      :     0.007057
      py      :     0.018317
 21 C s       :     3.010056  s :     3.010056
      pz      :     0.936579  p :     2.812484
      px      :     0.942645
      py      :     0.933260
      dz2     :     0.011564  d :     0.039776
      dxz     :     0.010312
      dyz     :     0.005013
      dx2y2   :     0.009182
      dxy     :     0.003706
 22 H s       :     0.967714  s :     0.967714
      pz      :     0.013754  p :     0.031772
      px      :     0.010484
      py      :     0.007534
 23 H s       :     0.973771  s :     0.973771
      pz      :     0.005896  p :     0.031705
      px      :     0.007306
      py      :     0.018504
 24 H s       :     0.975687  s :     0.975687
      pz      :     0.006269  p :     0.031600
      px      :     0.016533
      py      :     0.008798
 25 C s       :     3.002661  s :     3.002661
      pz      :     0.948148  p :     2.834560
      px      :     0.921325
      py      :     0.965088
      dz2     :     0.009981  d :     0.040133
      dxz     :     0.009836
      dyz     :     0.008730
      dx2y2   :     0.003433
      dxy     :     0.008153
 26 H s       :     0.954187  s :     0.954187
      pz      :     0.010886  p :     0.031870
      px      :     0.011196
      py      :     0.009787
 27 H s       :     0.965492  s :     0.965492
      pz      :     0.008098  p :     0.032188
      px      :     0.007912
      py      :     0.016178
 28 H s       :     0.989918  s :     0.989918
      pz      :     0.005994  p :     0.032289
      px      :     0.015415
      py      :     0.010880
 29 C s       :     3.011459  s :     3.011459
      pz      :     0.937738  p :     2.800092
      px      :     0.926801
      py      :     0.935553
      dz2     :     0.011559  d :     0.039787
      dxz     :     0.008122
      dyz     :     0.004161
      dx2y2   :     0.003555
      dxy     :     0.012389
 30 H s       :     0.971830  s :     0.971830
      pz      :     0.006682  p :     0.031695
      px      :     0.011689
      py      :     0.013323
 31 H s       :     0.975445  s :     0.975445
      pz      :     0.007211  p :     0.031882
      px      :     0.009706
      py      :     0.014965
 32 H s       :     0.969142  s :     0.969142
      pz      :     0.016688  p :     0.031862
      px      :     0.007547
      py      :     0.007627
 33 C s       :     3.025837  s :     3.025837
      pz      :     0.953809  p :     2.812055
      px      :     0.943858
      py      :     0.914388
      dz2     :     0.004140  d :     0.038825
      dxz     :     0.008006
      dyz     :     0.009334
      dx2y2   :     0.008101
      dxy     :     0.009244
 34 H s       :     0.959031  s :     0.959031
      pz      :     0.009815  p :     0.031766
      px      :     0.015832
      py      :     0.006120
 35 H s       :     0.968084  s :     0.968084
      pz      :     0.016107  p :     0.032380
      px      :     0.007714
      py      :     0.008559
 36 H s       :     0.973780  s :     0.973780
      pz      :     0.010822  p :     0.032033
      px      :     0.009213
      py      :     0.011999
 37 H s       :     1.045601  s :     1.045601
      pz      :     0.008117  p :     0.031761
      px      :     0.005667
      py      :     0.017977
 38 H s       :     1.034734  s :     1.034734
      pz      :     0.007211  p :     0.032106
      px      :     0.014827
      py      :     0.010068
 39 H s       :     0.782152  s :     0.782152
      pz      :     0.024210  p :     0.085741
      px      :     0.037223
      py      :     0.024307


                     *******************************
                     * LOEWDIN POPULATION ANALYSIS *
                     *******************************

----------------------
LOEWDIN ATOMIC CHARGES
----------------------
   0 C :   -0.040870
   1 C :   -0.015101
   2 C :   -0.067792
   3 C :   -0.016478
   4 C :   -0.015282
   5 C :   -0.031529
   6 O :    0.037195
   7 C :   -0.042886
   8 H :    0.026215
   9 H :    0.031229
  10 H :    0.032105
  11 C :   -0.062140
  12 C :   -0.053929
  13 C :   -0.040947
  14 H :    0.020579
  15 H :    0.019181
  16 H :    0.017203
  17 C :   -0.040432
  18 H :    0.021079
  19 H :    0.015468
  20 H :    0.020719
  21 C :   -0.038284
  22 H :    0.020250
  23 H :    0.020574
  24 H :    0.018909
  25 C :   -0.041054
  26 H :    0.025750
  27 H :    0.027224
  28 H :    0.009140
  29 C :   -0.035500
  30 H :    0.017625
  31 H :    0.020508
  32 H :    0.022613
  33 C :   -0.034405
  34 H :    0.024100
  35 H :    0.017796
  36 H :    0.019014
  37 H :    0.019437
  38 H :    0.021566
  39 H :    0.051149

-------------------------------
LOEWDIN REDUCED ORBITAL CHARGES
-------------------------------
  0 C s       :     2.842577  s :     2.842577
      pz      :     0.987849  p :     2.986841
      px      :     0.995671
      py      :     1.003321
      dz2     :     0.028751  d :     0.211452
      dxz     :     0.026352
      dyz     :     0.045792
      dx2y2   :     0.056747
      dxy     :     0.053810
  1 C s       :     2.827636  s :     2.827636
      pz      :     0.973291  p :     2.991768
      px      :     1.015001
      py      :     1.003476
      dz2     :     0.023985  d :     0.195697
      dxz     :     0.037914
      dyz     :     0.026294
      dx2y2   :     0.063673
      dxy     :     0.043832
  2 C s       :     2.805673  s :     2.805673
      pz      :     0.954151  p :     3.005179
      px      :     1.005594
      py      :     1.045434
      dz2     :     0.026787  d :     0.256940
      dxz     :     0.037139
      dyz     :     0.042663
      dx2y2   :     0.074515
      dxy     :     0.075835
  3 C s       :     2.828259  s :     2.828259
      pz      :     0.974577  p :     2.992845
      px      :     0.996903
      py      :     1.021365
      dz2     :     0.021641  d :     0.195375
      dxz     :     0.018845
      dyz     :     0.033660
      dx2y2   :     0.052763
      dxy     :     0.068464
  4 C s       :     2.854129  s :     2.854129
      pz      :     0.976920  p :     2.964234
      px      :     1.008098
      py      :     0.979216
      dz2     :     0.019219  d :     0.196918
      dxz     :     0.026697
      dyz     :     0.028254
      dx2y2   :     0.060782
      dxy     :     0.061966
  5 C s       :     2.850055  s :     2.850055
      pz      :     0.951644  p :     2.863133
      px      :     0.890938
      py      :     1.020552
      dz2     :     0.041729  d :     0.318340
      dxz     :     0.051735
      dyz     :     0.050720
      dx2y2   :     0.080625
      dxy     :     0.093531
  6 O s       :     3.365472  s :     3.365472
      pz      :     1.642374  p :     4.575711
      px      :     1.302954
      py      :     1.630383
      dz2     :     0.002935  d :     0.021621
      dxz     :     0.003960
      dyz     :     0.002897
      dx2y2   :     0.002711
      dxy     :     0.009118
  7 C s       :     2.799449  s :     2.799449
      pz      :     1.036252  p :     3.097814
      px      :     1.018662
      py      :     1.042900
      dz2     :     0.024493  d :     0.145623
      dxz     :     0.029497
      dyz     :     0.032173
      dx2y2   :     0.015378
      dxy     :     0.044082
  8 H s       :     0.894287  s :     0.894287
      pz      :     0.017755  p :     0.079498
      px      :     0.030300
      py      :     0.031443
  9 H s       :     0.888572  s :     0.888572
      pz      :     0.039084  p :     0.080199
      px      :     0.018928
      py      :     0.022187
 10 H s       :     0.887354  s :     0.887354
      pz      :     0.026699  p :     0.080542
      px      :     0.022675
      py      :     0.031167
 11 C s       :     2.812469  s :     2.812469
      pz      :     1.000753  p :     2.990666
      px      :     1.000267
      py      :     0.989646
      dz2     :     0.054893  d :     0.259005
      dxz     :     0.060691
      dyz     :     0.041289
      dx2y2   :     0.039560
      dxy     :     0.062572
 12 C s       :     2.819494  s :     2.819494
      pz      :     0.999220  p :     2.981418
      px      :     1.007696
      py      :     0.974501
      dz2     :     0.052450  d :     0.253017
      dxz     :     0.054559
      dyz     :     0.043066
      dx2y2   :     0.058092
      dxy     :     0.044850
 13 C s       :     2.808025  s :     2.808025
      pz      :     1.048901  p :     3.086484
      px      :     1.006334
      py      :     1.031249
      dz2     :     0.023421  d :     0.146437
      dxz     :     0.046987
      dyz     :     0.013103
      dx2y2   :     0.039809
      dxy     :     0.023118
 14 H s       :     0.898596  s :     0.898596
      pz      :     0.034463  p :     0.080825
      px      :     0.024930
      py      :     0.021432
 15 H s       :     0.901150  s :     0.901150
      pz      :     0.018142  p :     0.079670
      px      :     0.016765
      py      :     0.044763
 16 H s       :     0.899746  s :     0.899746
      pz      :     0.038274  p :     0.083051
      px      :     0.027563
      py      :     0.017214
 17 C s       :     2.823198  s :     2.823198
      pz      :     1.012629  p :     3.078279
      px      :     1.024095
      py      :     1.041555
      dz2     :     0.038887  d :     0.138955
      dxz     :     0.020742
      dyz     :     0.022126
      dx2y2   :     0.047792
      dxy     :     0.009408
 18 H s       :     0.897653  s :     0.897653
      pz      :     0.041207  p :     0.081268
      px      :     0.018063
      py      :     0.021998
 19 H s       :     0.902942  s :     0.902942
      pz      :     0.017215  p :     0.081590
      px      :     0.046443
      py      :     0.017932
 20 H s       :     0.898936  s :     0.898936
      pz      :     0.016876  p :     0.080344
      px      :     0.016892
      py      :     0.046576
 21 C s       :     2.812353  s :     2.812353
      pz      :     1.006624  p :     3.079792
      px      :     1.035916
      py      :     1.037253
      dz2     :     0.039725  d :     0.146139
      dxz     :     0.037074
      dyz     :     0.016148
      dx2y2   :     0.037157
      dxy     :     0.016036
 22 H s       :     0.898740  s :     0.898740
      pz      :     0.036835  p :     0.081010
      px      :     0.026346
      py      :     0.017829
 23 H s       :     0.899618  s :     0.899618
      pz      :     0.016454  p :     0.079808
      px      :     0.016751
      py      :     0.046602
 24 H s       :     0.901075  s :     0.901075
      pz      :     0.017410  p :     0.080016
      px      :     0.041697
      py      :     0.020909
 25 C s       :     2.808922  s :     2.808922
      pz      :     1.006699  p :     3.085440
      px      :     1.027732
      py      :     1.051008
      dz2     :     0.032339  d :     0.146692
      dxz     :     0.034109
      dyz     :     0.030754
      dx2y2   :     0.016118
      dxy     :     0.033371
 26 H s       :     0.892420  s :     0.892420
      pz      :     0.029877  p :     0.081829
      px      :     0.028644
      py      :     0.023309
 27 H s       :     0.892446  s :     0.892446
      pz      :     0.021744  p :     0.080329
      px      :     0.018078
      py      :     0.040507
 28 H s       :     0.908154  s :     0.908154
      pz      :     0.017306  p :     0.082706
      px      :     0.039355
      py      :     0.026045
 29 C s       :     2.811747  s :     2.811747
      pz      :     1.020901  p :     3.076891
      px      :     1.014405
      py      :     1.041585
      dz2     :     0.041035  d :     0.146862
      dxz     :     0.031734
      dyz     :     0.013808
      dx2y2   :     0.012425
      dxy     :     0.047861
 30 H s       :     0.901773  s :     0.901773
      pz      :     0.016810  p :     0.080602
      px      :     0.030395
      py      :     0.033397
 31 H s       :     0.899048  s :     0.899048
      pz      :     0.018689  p :     0.080444
      px      :     0.024734
      py      :     0.037021
 32 H s       :     0.897252  s :     0.897252
      pz      :     0.042697  p :     0.080135
      px      :     0.020267
      py      :     0.017171
 33 C s       :     2.819314  s :     2.819314
      pz      :     1.047068  p :     3.074706
      px      :     1.032502
      py      :     0.995136
      dz2     :     0.018242  d :     0.140385
      dxz     :     0.028794
      dyz     :     0.034329
      dx2y2   :     0.026024
      dxy     :     0.032996
 34 H s       :     0.894730  s :     0.894730
      pz      :     0.023787  p :     0.081170
      px      :     0.040465
      py      :     0.016918
 35 H s       :     0.900438  s :     0.900438
      pz      :     0.040418  p :     0.081767
      px      :     0.018600
      py      :     0.022748
 36 H s       :     0.900042  s :     0.900042
      pz      :     0.025268  p :     0.080944
      px      :     0.023870
      py      :     0.031806
 37 H s       :     0.895903  s :     0.895903
      pz      :     0.021655  p :     0.084660
      px      :     0.016473
      py      :     0.046532
 38 H s       :     0.892519  s :     0.892519
      pz      :     0.019653  p :     0.085915
      px      :     0.039283
      py      :     0.026979
 39 H s       :     0.741049  s :     0.741049
      pz      :     0.058787  p :     0.207802
      px      :     0.085447
      py      :     0.063568


                      *****************************
                      * MAYER POPULATION ANALYSIS *
                      *****************************

  NA   - Mulliken gross atomic population
  ZA   - Total nuclear charge
  QA   - Mulliken gross atomic charge
  VA   - Mayer's total valence
  BVA  - Mayer's bonded valence
  FA   - Mayer's free valence

  ATOM       NA         ZA         QA         VA         BVA        FA
  0 C      5.9320     6.0000     0.0680     3.6733     3.6733     0.0000
  1 C      5.9247     6.0000     0.0753     3.8832     3.8832     0.0000
  2 C      6.1614     6.0000    -0.1614     4.2379     4.2379     0.0000
  3 C      5.9090     6.0000     0.0910     3.8717     3.8717     0.0000
  4 C      5.9475     6.0000     0.0525     3.7453     3.7453    -0.0000
  5 C      5.9926     6.0000     0.0074     3.8522     3.8522     0.0000
  6 O      8.2292     8.0000    -0.2292     2.2599     2.2599     0.0000
  7 C      5.8816     6.0000     0.1184     3.9387     3.9387     0.0000
  8 H      1.0019     1.0000    -0.0019     0.9852     0.9852     0.0000
  9 H      0.9812     1.0000     0.0188     0.9731     0.9731     0.0000
 10 H      0.9739     1.0000     0.0261     0.9674     0.9674     0.0000
 11 C      6.4101     6.0000    -0.4101     4.2751     4.2751    -0.0000
 12 C      6.3802     6.0000    -0.3802     4.2619     4.2619    -0.0000
 13 C      5.8602     6.0000     0.1398     3.9327     3.9327    -0.0000
 14 H      1.0053     1.0000    -0.0053     0.9824     0.9824    -0.0000
 15 H      1.0099     1.0000    -0.0099     0.9795     0.9795     0.0000
 16 H      0.9966     1.0000     0.0034     1.0052     1.0052     0.0000
 17 C      5.8979     6.0000     0.1021     3.9488     3.9488    -0.0000
 18 H      0.9955     1.0000     0.0045     0.9847     0.9847    -0.0000
 19 H      0.9997     1.0000     0.0003     0.9808     0.9808    -0.0000
 20 H      1.0026     1.0000    -0.0026     0.9839     0.9839    -0.0000
 21 C      5.8623     6.0000     0.1377     3.9137     3.9137    -0.0000
 22 H      0.9995     1.0000     0.0005     0.9843     0.9843     0.0000
 23 H      1.0055     1.0000    -0.0055     0.9847     0.9847    -0.0000
 24 H      1.0073     1.0000    -0.0073     0.9869     0.9869    -0.0000
 25 C      5.8774     6.0000     0.1226     3.9384     3.9384     0.0000
 26 H      0.9861     1.0000     0.0139     0.9820     0.9820    -0.0000
 27 H      0.9977     1.0000     0.0023     0.9881     0.9881    -0.0000
 28 H      1.0222     1.0000    -0.0222     0.9931     0.9931    -0.0000
 29 C      5.8513     6.0000     0.1487     3.9056     3.9056    -0.0000
 30 H      1.0035     1.0000    -0.0035     0.9827     0.9827    -0.0000
 31 H      1.0073     1.0000    -0.0073     0.9846     0.9846     0.0000
 32 H      1.0010     1.0000    -0.0010     0.9905     0.9905    -0.0000
 33 C      5.8767     6.0000     0.1233     3.9448     3.9448    -0.0000
 34 H      0.9908     1.0000     0.0092     0.9838     0.9838    -0.0000
 35 H      1.0005     1.0000    -0.0005     0.9829     0.9829    -0.0000
 36 H      1.0058     1.0000    -0.0058     0.9816     0.9816    -0.0000
 37 H      1.0774     1.0000    -0.0774     0.9944     0.9944     0.0000
 38 H      1.0668     1.0000    -0.0668     0.9972     0.9972    -0.0000
 39 H      0.8679     1.0000     0.1321     1.0687     1.0687     0.0000

  Mayer bond orders larger than 0.1
B(  0-C ,  1-C ) :   1.3541 B(  0-C ,  5-C ) :   1.2629 B(  0-C , 11-C ) :   0.9580 
B(  1-C ,  2-C ) :   1.4426 B(  1-C , 37-H ) :   0.9124 B(  2-C ,  3-C ) :   1.4115 
B(  2-C ,  7-C ) :   1.1266 B(  3-C ,  4-C ) :   1.3933 B(  3-C , 38-H ) :   0.9094 
B(  4-C ,  5-C ) :   1.2680 B(  4-C , 12-C ) :   0.9571 B(  5-C ,  6-O ) :   1.1517 
B(  6-O , 39-H ) :   0.9724 B(  7-C ,  8-H ) :   0.9419 B(  7-C ,  9-H ) :   0.9434 
B(  7-C , 10-H ) :   0.9428 B( 11-C , 25-C ) :   1.0667 B( 11-C , 29-C ) :   1.0308 
B( 11-C , 33-C ) :   1.0566 B( 12-C , 13-C ) :   1.0648 B( 12-C , 17-C ) :   1.0498 
B( 12-C , 21-C ) :   1.0327 B( 13-C , 14-H ) :   0.9563 B( 13-C , 15-H ) :   0.9494 
B( 13-C , 16-H ) :   0.9531 B( 17-C , 18-H ) :   0.9583 B( 17-C , 19-H ) :   0.9539 
B( 17-C , 20-H ) :   0.9515 B( 21-C , 22-H ) :   0.9584 B( 21-C , 23-H ) :   0.9576 
B( 21-C , 24-H ) :   0.9557 B( 25-C , 26-H ) :   0.9563 B( 25-C , 27-H ) :   0.9495 
B( 25-C , 28-H ) :   0.9439 B( 29-C , 30-H ) :   0.9556 B( 29-C , 31-H ) :   0.9572 
B( 29-C , 32-H ) :   0.9581 B( 33-C , 34-H ) :   0.9586 B( 33-C , 35-H ) :   0.9543 
B( 33-C , 36-H ) :   0.9487 

-------
TIMINGS
-------

Total SCF time: 0 days 0 hours 1 min 26 sec 

Total time                  ....      86.412 sec
Sum of individual times     ....      86.269 sec  ( 99.8%)

Fock matrix formation       ....      70.317 sec  ( 81.4%)
  Split-RI-J                ....      41.553 sec  ( 59.1% of F)
  XC integration            ....      28.720 sec  ( 40.8% of F)
    Basis function eval.    ....      18.588 sec  ( 64.7% of XC)
    Density eval.           ....       3.451 sec  ( 12.0% of XC)
    XC-Functional eval.     ....       0.345 sec  (  1.2% of XC)
    XC-Potential eval.      ....       6.040 sec  ( 21.0% of XC)
Diagonalization             ....       0.169 sec  (  0.2%)
Density matrix formation    ....       0.038 sec  (  0.0%)
Population analysis         ....       0.061 sec  (  0.1%)
Initial guess               ....       5.117 sec  (  5.9%)
Orbital Transformation      ....       0.000 sec  (  0.0%)
Orbital Orthonormalization  ....       0.000 sec  (  0.0%)
DIIS solution               ....       0.051 sec  (  0.1%)
SOSCF solution              ....       0.111 sec  (  0.1%)
Grid generation             ....      10.405 sec  ( 12.0%)

-------------------------   --------------------
FINAL SINGLE POINT ENERGY      -660.982072937787
-------------------------   --------------------


                            ***************************************
                            *     ORCA property calculations      *
                            ***************************************

                                    ---------------------
                                    Active property flags
                                    ---------------------
   (+) Dipole Moment
   (+) Chemical Shifts


------------------------------------------------------------------------------
                       ORCA ELECTRIC PROPERTIES CALCULATION
------------------------------------------------------------------------------

Dipole Moment Calculation                       ... on
Quadrupole Moment Calculation                   ... off
Polarizability Calculation                      ... off
GBWName                                         ... /home/jan/SoftwareDevelopment/karminus/output/olyp_ccpvdz/2_6_di_tert_butyl_p_cresol/2_6_di_tert_butyl_p_cresol.gbw
Electron density file                           ... /home/jan/SoftwareDevelopment/karminus/output/olyp_ccpvdz/2_6_di_tert_butyl_p_cresol/2_6_di_tert_butyl_p_cresol.scfp.tmp

-------------
DIPOLE MOMENT
-------------
                                X             Y             Z
Electronic contribution:     -0.48766       0.26919       0.27631
Nuclear contribution   :      0.19172      -0.78220      -0.15775
                        -----------------------------------------
Total Dipole Moment    :     -0.29594      -0.51301       0.11856
                        -----------------------------------------
Magnitude (a.u.)       :      0.60400
Magnitude (Debye)      :      1.53526

------------------------------------------------------------------------------
                                ORCA EPR/NMR CALCULATION
------------------------------------------------------------------------------

GBWName                      ... /home/jan/SoftwareDevelopment/karminus/output/olyp_ccpvdz/2_6_di_tert_butyl_p_cresol/2_6_di_tert_butyl_p_cresol.gbw
Electron density file        ... /home/jan/SoftwareDevelopment/karminus/output/olyp_ccpvdz/2_6_di_tert_butyl_p_cresol/2_6_di_tert_butyl_p_cresol.scfp.tmp
Spin density file            ... /home/jan/SoftwareDevelopment/karminus/output/olyp_ccpvdz/2_6_di_tert_butyl_p_cresol/2_6_di_tert_butyl_p_cresol.scfr.tmp
Treatment of gauge           ... GIAO (approximations 1/2el = 0,3)
Details of the CP(SCF) procedure:
       Solver   = POPLE   
       MaxIter  =    64   
       Tolerance=    1.000e-06
       Op-0     =   0- 60 =>  61-343
Multiplicity                 ... 1
g-tensor                     ... 0
NMR chemical shifts          ... 1
Number of nuclei for epr/nmr ... 40
   Nucleus:   0C 
       Hyperfine : Isotope=   13 I=   0.500 P= 134.188
       Quadrupole: Isotope=   13 I=   0.500 Q=   0.000
       Spin-Orbit: Zeff=   3.600
       rho(0)=N f(grad)=N a(iso)=N a(dip)=N a(orb)=N sigma(nmr)=Y
   Nucleus:   1C 
       Hyperfine : Isotope=   13 I=   0.500 P= 134.188
       Quadrupole: Isotope=   13 I=   0.500 Q=   0.000
       Spin-Orbit: Zeff=   3.600
       rho(0)=N f(grad)=N a(iso)=N a(dip)=N a(orb)=N sigma(nmr)=Y
   Nucleus:   2C 
       Hyperfine : Isotope=   13 I=   0.500 P= 134.188
       Quadrupole: Isotope=   13 I=   0.500 Q=   0.000
       Spin-Orbit: Zeff=   3.600
       rho(0)=N f(grad)=N a(iso)=N a(dip)=N a(orb)=N sigma(nmr)=Y
   Nucleus:   3C 
       Hyperfine : Isotope=   13 I=   0.500 P= 134.188
       Quadrupole: Isotope=   13 I=   0.500 Q=   0.000
       Spin-Orbit: Zeff=   3.600
       rho(0)=N f(grad)=N a(iso)=N a(dip)=N a(orb)=N sigma(nmr)=Y
   Nucleus:   4C 
       Hyperfine : Isotope=   13 I=   0.500 P= 134.188
       Quadrupole: Isotope=   13 I=   0.500 Q=   0.000
       Spin-Orbit: Zeff=   3.600
       rho(0)=N f(grad)=N a(iso)=N a(dip)=N a(orb)=N sigma(nmr)=Y
[...]


 Diagonalized sT*s matrix:
 
 sDSO           217.652          229.417          246.714  iso=     231.261
 sPSO           -74.527          -78.315          -58.707  iso=     -70.517
        ---------------  ---------------  ---------------
 Total          143.124          151.102          188.007  iso=     160.744

 --------------
 Nucleus  22H :
 --------------

Diamagnetic contribution to the shielding tensor (ppm) : 
            -2.567          3.301        -5.871
            -0.691        -10.133        12.658
           -56.437         35.641        29.003

Paramagnetic contribution to the shielding tensor (ppm): 
            30.518         -1.287         5.273
             1.685         37.534       -11.778
            54.031        -34.346         5.665

Total shielding tensor (ppm): 
            27.950          2.014        -0.598
             0.994         27.401         0.880
            -2.406          1.295        34.667


 Diagonalized sT*s matrix:
 
 sDSO           -22.474           -5.544           44.320  iso=       5.434
 sPSO            48.256           34.717           -9.257  iso=      24.572
        ---------------  ---------------  ---------------
 Total           25.782           29.173           35.063  iso=      30.006

 --------------
 Nucleus  23H :
 --------------

Diamagnetic contribution to the shielding tensor (ppm) : 
           -17.363         12.822        12.753
           -44.568         40.528        38.083
           -32.733         19.844        19.607

Paramagnetic contribution to the shielding tensor (ppm): 
            45.073        -10.374       -11.814
            46.605         -6.737       -35.575
            33.600        -15.810         9.527

Total shielding tensor (ppm): 
            27.710          2.448         0.939
             2.037         33.791         2.509
             0.868          4.033        29.134


 Diagonalized sT*s matrix:
 
 sDSO            -4.737            3.475           44.034  iso=      14.257
 sPSO            31.671           24.064           -7.872  iso=      15.954
        ---------------  ---------------  ---------------
 Total           26.934           27.539           36.162  iso=      30.211

 --------------
 Nucleus  24H :
 --------------

Diamagnetic contribution to the shielding tensor (ppm) : 
            17.217         21.501        21.675
            -0.256         45.222         1.889
           -32.564         27.613        58.186

Paramagnetic contribution to the shielding tensor (ppm): 
            15.705        -22.000       -19.314
            -0.006        -17.267        -1.276
            36.638        -26.259       -28.427

Total shielding tensor (ppm): 
            32.922         -0.499         2.361
            -0.262         27.955         0.613
             4.075          1.354        29.759


 Diagonalized sT*s matrix:
 
 sDSO            41.896           54.181           24.548  iso=      40.209
 sPSO           -15.083          -25.289           10.382  iso=      -9.996
        ---------------  ---------------  ---------------
 Total           26.813           28.892           34.930  iso=      30.212

 --------------
 Nucleus  25C :
 --------------

Diamagnetic contribution to the shielding tensor (ppm) : 
           204.144         11.978       -25.813
            -9.041        218.582        -8.133
           -78.131         29.542       217.757

Paramagnetic contribution to the shielding tensor (ppm): 
           -55.702        -19.105         6.358
             1.976        -60.954        12.663
            59.070        -21.845       -40.383

Total shielding tensor (ppm): 
           148.442         -7.127       -19.455
            -7.065        157.628         4.530
           -19.061          7.697       177.375


 Diagonalized sT*s matrix:
 
 sDSO           171.615          209.564          259.305  iso=     213.494
 sPSO           -33.519          -53.580          -69.939  iso=     -52.346
        ---------------  ---------------  ---------------
 Total          138.096          155.983          189.365  iso=     161.148

 --------------
 Nucleus  26H :
 --------------

Diamagnetic contribution to the shielding tensor (ppm) : 
            -8.106         16.587         3.709
            -7.996         23.421         4.914
           -64.696         30.345        41.212

Paramagnetic contribution to the shielding tensor (ppm): 
            34.094        -16.059        -3.196
            10.070          6.086        -3.770
            64.797        -28.897        -7.520

Total shielding tensor (ppm): 
            25.988          0.528         0.513
             2.074         29.506         1.144
             0.101          1.448        33.692


 Diagonalized sT*s matrix:
 
 sDSO            -8.661           20.621           44.566  iso=      18.842
 sPSO            34.219            8.892          -10.452  iso=      10.886
        ---------------  ---------------  ---------------
 Total           25.558           29.513           34.114  iso=      29.729

 --------------
 Nucleus  27H :
 --------------

Diamagnetic contribution to the shielding tensor (ppm) : 
             0.172          5.007       -19.283
            31.453         -4.553       -17.558
           -63.888          9.957        10.887

Paramagnetic contribution to the shielding tensor (ppm): 
            27.842         -4.103        15.922
           -30.557         36.040        15.195
            60.041        -13.621        20.159

Total shielding tensor (ppm): 
            28.014          0.904        -3.361
             0.896         31.487        -2.363
            -3.847         -3.663        31.046


 Diagonalized sT*s matrix:
 
 sDSO           -30.938           -1.277           38.720  iso=       2.168
 sPSO            56.387           30.721           -3.067  iso=      28.014
        ---------------  ---------------  ---------------
 Total           25.449           29.444           35.654  iso=      30.182

 --------------
 Nucleus  28H :
 --------------

Diamagnetic contribution to the shielding tensor (ppm) : 
            15.992         -9.440       -26.283
           -24.659        -28.456         0.119
           -42.107         10.217        -7.570

Paramagnetic contribution to the shielding tensor (ppm): 
            15.465          7.239        23.715
            22.534         59.668         0.195
            37.200         -8.979        36.052

Total shielding tensor (ppm): 
            31.458         -2.201        -2.568
            -2.124         31.212         0.314
            -4.907          1.239        28.482


 Diagonalized sT*s matrix:
 
 sDSO           -33.296          -25.007           38.269  iso=      -6.678
 sPSO            59.178           55.046           -3.038  iso=      37.062
        ---------------  ---------------  ---------------
 Total           25.881           30.039           35.231  iso=      30.384

 --------------
 Nucleus  29C :
 --------------

Diamagnetic contribution to the shielding tensor (ppm) : 
           270.876         -3.068       -19.063
            22.957        209.198        -2.250
            37.132          0.297       203.888

Paramagnetic contribution to the shielding tensor (ppm): 
          -101.017          7.415        37.885
           -19.860        -65.591        12.558
           -21.029          9.708       -38.981

Total shielding tensor (ppm): 
           169.858          4.347        18.822
             3.097        143.607        10.308
            16.103         10.005       164.907


 Diagonalized sT*s matrix:
 
 sDSO           211.634          222.648          249.679  iso=     227.987
 sPSO           -72.545          -70.480          -62.564  iso=     -68.530
        ---------------  ---------------  ---------------
 Total          139.089          152.168          187.115  iso=     159.457

 --------------
 Nucleus  30H :
 --------------

Diamagnetic contribution to the shielding tensor (ppm) : 
            53.306        -13.074       -19.843
           -17.741         -1.158        13.106
            33.921         -5.178       -17.942

Paramagnetic contribution to the shielding tensor (ppm): 
           -20.220         10.466        21.858
            16.021         30.880       -13.144
           -29.920          5.178        45.876

Total shielding tensor (ppm): 
            33.086         -2.609         2.015
            -1.720         29.722        -0.038
             4.001          0.001        27.934


 Diagonalized sT*s matrix:
 
 sDSO           -13.350           -3.227           50.784  iso=      11.402
 sPSO            39.635           32.491          -15.590  iso=      18.845
        ---------------  ---------------  ---------------
 Total           26.285           29.264           35.193  iso=      30.248

 --------------
 Nucleus  31H :
 --------------

Diamagnetic contribution to the shielding tensor (ppm) : 
            51.786         -0.548       -27.258
            54.869         -9.006       -21.500
            18.927         -3.369       -16.883

Paramagnetic contribution to the shielding tensor (ppm): 
           -19.720          5.141        27.791
           -51.186         40.137        21.949
           -17.293          4.616        43.965

Total shielding tensor (ppm): 
            32.066          4.593         0.533
             3.682         31.131         0.448
             1.634          1.248        27.082


 Diagonalized sT*s matrix:
 
 sDSO           -12.983           -8.043           46.923  iso=       8.632
 sPSO            39.841           35.491          -10.950  iso=      21.461
        ---------------  ---------------  ---------------
 Total           26.858           27.448           35.973  iso=      30.093

 --------------
 Nucleus  32H :
 --------------

Diamagnetic contribution to the shielding tensor (ppm) : 
            62.546          3.395       -15.679
            12.434         36.439         1.209
            52.719          6.828        13.548

Paramagnetic contribution to the shielding tensor (ppm): 
           -33.600         -2.003        16.633
           -12.377         -8.780         1.053
           -52.492         -3.773        20.147

Total shielding tensor (ppm): 
            28.947          1.392         0.954
             0.057         27.659         2.262
             0.227          3.055        33.695


 Diagonalized sT*s matrix:
 
 sDSO            32.058           55.217           25.259  iso=      37.511
 sPSO            -5.498          -26.287            9.551  iso=      -7.411
        ---------------  ---------------  ---------------
 Total           26.560           28.930           34.810  iso=      30.100

 --------------
 Nucleus  33C :
 --------------

Diamagnetic contribution to the shielding tensor (ppm) : 
           242.314         11.693        29.775
            35.247        259.061         3.231
           -17.111         22.095       296.565

Paramagnetic contribution to the shielding tensor (ppm): 
           -84.835        -30.869       -42.253
           -55.747        -89.404       -14.389
            11.895        -34.833      -165.263

Total shielding tensor (ppm): 
           157.479        -19.176       -12.478
           -20.500        169.657       -11.158
            -5.216        -12.738       131.302


 Diagonalized sT*s matrix:
 
 sDSO           301.328          265.720          230.892  iso=     265.980
 sPSO          -179.809         -113.505          -46.187  iso=    -113.167
        ---------------  ---------------  ---------------
 Total          121.519          152.214          184.705  iso=     152.813

 --------------
 Nucleus  34H :
 --------------

Diamagnetic contribution to the shielding tensor (ppm) : 
            17.124          0.592        37.697
            23.462         47.074        -6.197
           -38.362         -1.139        89.924

Paramagnetic contribution to the shielding tensor (ppm): 
            15.256         -2.489       -35.541
           -25.969        -17.482         4.102
            39.007         -2.180       -61.860

Total shielding tensor (ppm): 
            32.381         -1.897         2.156
            -2.507         29.592        -2.095
             0.646         -3.319        28.064


 Diagonalized sT*s matrix:
 
 sDSO            70.786           55.305           28.031  iso=      51.374
 sPSO           -44.778          -25.917            6.609  iso=     -21.362
        ---------------  ---------------  ---------------
 Total           26.008           29.388           34.641  iso=      30.012

 --------------
 Nucleus  35H :
 --------------

Diamagnetic contribution to the shielding tensor (ppm) : 
            41.408          7.346         7.155
            47.888         64.954        -9.150
             3.948         17.130        57.683

Paramagnetic contribution to the shielding tensor (ppm): 
           -12.653         -9.990       -11.621
           -49.552        -33.069        11.803
            -6.792        -16.595       -29.671

Total shielding tensor (ppm): 
            28.754         -2.644        -4.466
            -1.664         31.885         2.653
            -2.844          0.535        28.012


 Diagonalized sT*s matrix:
 
 sDSO            56.507           71.504           36.034  iso=      54.681
 sPSO           -31.803          -42.194           -1.397  iso=     -25.131
        ---------------  ---------------  ---------------
 Total           24.703           29.310           34.637  iso=      29.550

 --------------
 Nucleus  36H :
 --------------

Diamagnetic contribution to the shielding tensor (ppm) : 
            26.599          7.640         5.827
            50.041         27.822       -22.258
           -21.905          6.786        49.673

Paramagnetic contribution to the shielding tensor (ppm): 
             1.741         -8.012        -7.105
           -49.111          7.022        19.184
            20.093         -9.568       -20.871

Total shielding tensor (ppm): 
            28.339         -0.373        -1.278
             0.930         34.844        -3.074
            -1.812         -2.782        28.801


 Diagonalized sT*s matrix:
 
 sDSO            37.987           22.343           43.763  iso=      34.698
 sPSO           -11.413            6.945           -7.641  iso=      -4.036
        ---------------  ---------------  ---------------
 Total           26.574           29.289           36.122  iso=      30.662

 --------------
 Nucleus  37H :
 --------------

Diamagnetic contribution to the shielding tensor (ppm) : 
            56.016          0.922        19.153
            -2.376         71.475       -13.702
            31.279          0.993        82.374

Paramagnetic contribution to the shielding tensor (ppm): 
           -27.805          2.737       -24.394
             4.912        -49.516        11.280
           -36.396         -1.922       -59.743

Total shielding tensor (ppm): 
            28.211          3.658        -5.241
             2.536         21.959        -2.421
            -5.117         -0.930        22.631


 Diagonalized sT*s matrix:
 
 sDSO            98.390           65.989           45.485  iso=      69.955
 sPSO           -78.867          -45.191          -13.006  iso=     -45.688
        ---------------  ---------------  ---------------
 Total           19.523           20.798           32.479  iso=      24.267

 --------------
 Nucleus  38H :
 --------------

Diamagnetic contribution to the shielding tensor (ppm) : 
            60.291         14.177        16.164
            15.052         68.857       -25.609
            13.080         -5.686        85.213

Paramagnetic contribution to the shielding tensor (ppm): 
           -38.387        -17.672       -18.079
           -19.328        -39.180        27.608
           -14.132          8.663       -64.546

Total shielding tensor (ppm): 
            21.903         -3.495        -1.915
            -4.276         29.677         1.999
            -1.052          2.977        20.667


 Diagonalized sT*s matrix:
 
 sDSO            90.060           75.138           49.163  iso=      71.454
 sPSO           -70.383          -54.578          -17.152  iso=     -47.371
        ---------------  ---------------  ---------------
 Total           19.677           20.560           32.011  iso=      24.083

 --------------
 Nucleus  39H :
 --------------

Diamagnetic contribution to the shielding tensor (ppm) : 
            34.138          9.411       -31.237
            -5.579          6.223        32.249
           -29.098         21.762       -20.160

Paramagnetic contribution to the shielding tensor (ppm): 
            -3.828         -7.895        25.604
             8.890         22.228       -33.964
            23.761        -23.944        41.904

Total shielding tensor (ppm): 
            30.310          1.516        -5.633
             3.311         28.450        -1.715
            -5.337         -2.182        21.744


 Diagonalized sT*s matrix:
 
 sDSO           -30.071           19.205           31.068  iso=       6.734
 sPSO            49.086            7.782            3.435  iso=      20.101
        ---------------  ---------------  ---------------
 Total           19.015           26.986           34.503  iso=      26.835



--------------------------
CHEMICAL SHIELDING SUMMARY (ppm)
--------------------------


  Nucleus  Element    Isotropic     Anisotropy
  -------  -------  ------------   ------------
      0       C           56.848        143.687 
      1       C           64.568        143.940 
      2       C           67.984        159.976 
      3       C           61.982        136.030 
      4       C           52.292        143.722 
      5       C           38.949         87.454 
      6       O          213.865         69.989 
      7       C          170.530         36.427 
      8       H           29.714          7.009 
      9       H           29.310          7.941 
     10       H           28.966          8.283 
     11       C          149.466         19.715 
     12       C          146.026         22.060 
     13       C          161.642         39.906 
     14       H           30.017          6.891 
     15       H           30.506          8.340 
     16       H           29.477          7.371 
     17       C          152.606         48.717 
     18       H           30.077          6.916 
     19       H           29.627          7.448 
     20       H           30.487          7.963 
     21       C          160.744         40.894 
     22       H           30.006          7.585 
     23       H           30.211          8.926 
     24       H           30.212          7.078 
     25       C          161.148         42.325 
     26       H           29.729          6.579 
     27       H           30.182          8.207 
     28       H           30.384          7.271 
     29       C          159.457         41.487 
     30       H           30.248          7.419 
     31       H           30.093          8.820 
     32       H           30.100          7.065 
     33       C          152.813         47.839 
     34       H           30.012          6.943 
     35       H           29.550          7.631 
     36       H           30.662          8.191 
     37       H           24.267         12.319 
     38       H           24.083         11.893 
     39       H           26.835         11.502 



Timings for individual modules:

Sum of individual times         ...      890.309 sec (=  14.838 min)
GTO integral calculation        ...        0.811 sec (=   0.014 min)   0.1 %
SCF iterations                  ...       86.424 sec (=   1.440 min)   9.7 %
SCF-level EPR/NMR calculation   ...      803.074 sec (=  13.385 min)  90.2 %
                             ****ORCA TERMINATED NORMALLY****
TOTAL RUN TIME: 0 days 0 hours 15 minutes 13 seconds 775 msec
