40
	Energy:      55.9035109
C        -15.10735        3.42295        8.71442
C        -13.97055        2.94733        8.03324
C        -12.99723        3.80709        7.51415
C        -13.16296        5.18822        7.64450
C        -14.28164        5.74335        8.28859
C        -15.24729        4.83219        8.78915
O        -16.37204        5.37860        9.34490
C        -11.81285        3.25303        6.77572
H        -10.94222        3.90850        6.88362
H        -12.05005        3.15146        5.71226
H        -11.52906        2.27193        7.17093
C        -16.11039        2.41287        9.32910
C        -14.43799        7.27941        8.41810
C        -14.55333        7.69257        9.90329
H        -15.46433        7.32318       10.38174
H        -14.57067        8.78400       10.00861
H        -13.70166        7.31649       10.48248
C        -15.68010        7.76353        7.63731
H        -16.61889        7.38426        8.05005
H        -15.63190        7.44832        6.58823
H        -15.75317        8.85757        7.65251
C        -13.23498        8.07823        7.84925
H        -12.29995        7.81860        8.35949
H        -13.38012        9.15797        7.97778
H        -13.10334        7.90319        6.77502
C        -17.31951        2.25362        8.38475
H        -17.86977        3.18777        8.24228
H        -18.03111        1.51765        8.77715
H        -17.00267        1.91173        7.39213
C        -15.50439        0.99454        9.52380
H        -15.27623        0.50763        8.56898
H        -16.20700        0.32928       10.04075
H        -14.58647        1.03070       10.12216
C        -16.59514        2.83673       10.73680
H        -17.28349        3.68506       10.71872
H        -15.74946        3.09824       11.38331
H        -17.14729        2.02555       11.22713
H        -13.80798        1.88220        7.89453
H        -12.39017        5.82242        7.21963
H        -17.13235        4.89789        8.98525
