10
	Energy:       7.5400858
C         -4.84802        1.96771        3.29665
C         -4.50763        3.38654        3.66405
O         -4.67971        2.36696        4.66098
H         -5.28222        4.13861        3.58317
H         -3.50279        3.74912        3.48853
C         -3.80972        1.02862        2.79665
H         -5.84615        1.73409        2.95271
H         -3.76190        1.06876        1.70419
H         -4.05585        0.00346        3.08996
H         -2.81592        1.26624        3.19017
