16
	Energy:      -4.2028042
C         -6.06816        2.40493       -0.72575
C         -6.03898        3.67361        0.11683
H         -6.56829        1.58370       -0.20489
H         -5.05371        2.08945       -0.99050
H         -6.61213        2.57844       -1.66123
O         -5.30432        4.64714       -0.62815
O         -7.36772        4.13069        0.35706
H         -5.51057        3.48173        1.05971
C         -7.98164        3.49327        1.46689
H         -7.41317        3.68510        2.38208
H         -8.07721        2.41693        1.30122
H         -8.98414        3.91224        1.59000
C         -5.12140        5.85115        0.10226
H         -4.59851        5.65675        1.04373
H         -6.08080        6.33944        0.29694
H         -4.50877        6.52708       -0.50063
