7
	Energy:      -0.1378847
C         -6.67314        1.37804        0.26672
C         -5.60056        2.15594       -0.43125
H         -7.26752        2.04261        0.89856
H         -6.20979        0.60623        0.88564
H         -7.31996        0.91165       -0.47996
O         -5.44124        3.36393       -0.29061
H         -4.94346        1.57063       -1.09636
