8
	Energy:     -26.0404362
C         -9.43682        4.93282        6.13741
C        -10.89268        4.59940        6.15149
H         -9.29200        5.89973        5.64958
H         -8.87275        4.17725        5.58280
H         -9.06217        4.96009        7.16345
O        -11.77224        5.25065        6.68924
O        -11.18084        3.46413        5.49058
H        -12.15262        3.37518        5.58290
