16
	Energy:      -5.7556111
C         -5.92851        2.51698       -0.39909
C         -5.73518        3.88202        0.25134
H         -6.35912        1.80075        0.30718
H         -4.97207        2.13094       -0.76711
H         -6.59240        2.57834       -1.26797
O         -5.28100        4.80078       -0.74138
O         -6.90840        4.33338        0.92763
H         -4.95532        3.77181        1.01478
C         -8.03457        4.52741        0.08395
H         -8.41941        3.57050       -0.27866
H         -7.79766        5.18627       -0.75630
H         -8.82221        5.00088        0.67704
C         -4.79623        6.00639       -0.16509
H         -3.94732        5.80357        0.49499
H         -5.58790        6.52296        0.38556
H         -4.45678        6.65907       -0.97400
