10
	Energy:       1.6522827
C        -11.21721        3.73788        6.74999
C        -11.38450        5.23184        6.81656
H        -10.77624        3.46113        5.78921
H        -12.19280        3.25294        6.84400
H        -10.57615        3.40426        7.56966
C        -10.13288        6.05888        6.69924
H         -9.65404        5.86408        5.73649
H         -9.45172        5.81035        7.51678
H        -10.38563        7.12106        6.75990
O        -12.49007        5.75148        6.96056
