6
	Energy:       0.0246266
C        -16.10317        3.10846        8.93270
C        -15.56669        4.46835        8.92302
H        -15.43956        2.43268        9.48029
H        -16.21169        2.72614        7.91340
H        -17.08621        3.08180        9.41212
N        -15.14092        5.54762        8.91534
