8
	Energy:       9.3873809
C         -7.39973        2.49371        5.44077
C         -6.65213        3.58836        5.61741
H         -6.96797        1.51183        5.27371
H         -8.48347        2.56299        5.46069
C         -5.17838        3.50955        5.59284
H         -7.08225        4.56895        5.78412
O         -4.48530        4.50618        5.75253
H         -4.74370        2.51045        5.42393
