13
	Energy:      29.4980040
C        -19.71755        2.23229       10.62458
C        -18.46596        2.27192       10.00692
C        -17.77464        3.47936        9.90831
C        -18.33126        4.64884       10.42607
C        -19.58267        4.61239       11.04429
C        -20.27958        3.40323       11.14511
H        -20.24867        1.28504       10.69626
H        -20.00806        5.53057       11.44492
H        -17.79006        5.58887       10.34786
H        -16.79982        3.50902        9.42683
H        -18.02964        1.36161        9.60243
C        -21.56471        3.36424       11.77909
N        -22.60538        3.33266       12.29228
