12
	Energy:      15.2712140
C        -19.53391        2.37796       10.57600
C        -18.29753        2.32464        9.93046
C        -17.53888        3.48622        9.77945
C        -18.01430        4.70196       10.27297
C        -19.25045        4.75717       10.91877
C        -20.00535        3.59448       11.06763
H        -20.12213        1.47187       10.69196
H        -19.61778        5.70520       11.30187
H        -17.42219        5.60596       10.15457
H        -16.57570        3.44394        9.27640
H        -17.92586        1.37834        9.54549
Cl       -21.52959        3.66138       11.86370
