23
	Energy:       0.4268076
C         -6.79093        6.48723        0.12562
C         -8.00448        5.79501        0.75164
C         -7.02896        6.66684       -1.37936
H         -7.95254        7.22623       -1.56794
H         -7.12431        5.70227       -1.89069
H         -6.20201        7.21034       -1.84978
C         -5.53315        5.64328        0.37176
H         -5.59933        4.66615       -0.11993
H         -5.38638        5.45856        1.44217
H         -4.63754        6.14510       -0.01117
C         -6.59941        7.86862        0.77170
H         -5.73580        8.39118        0.34526
H         -6.43824        7.78246        1.85260
H         -7.48086        8.50304        0.62248
O         -8.72773        6.28924        1.60693
O         -8.17989        4.54941        0.22372
C         -9.30074        3.83365        0.75625
C         -9.35814        2.47701        0.08174
H        -10.22376        4.38773        0.55226
H         -9.17756        3.70429        1.83733
H         -9.45932        2.58975       -1.00278
H        -10.20151        1.89026        0.45631
H         -8.43259        1.91920        0.25875
