23
	Energy:       0.4270801
C         -7.65913        6.21247        0.52661
C         -8.59307        6.03794        1.72706
C         -8.25003        5.49481       -0.69434
H         -9.20523        5.93656       -0.99989
H         -8.43666        4.43684       -0.47683
H         -7.57183        5.54941       -1.55321
C         -6.28788        5.59862        0.85094
H         -6.37516        4.52976        1.07822
H         -5.83213        6.08180        1.72304
H         -5.59452        5.70620        0.00926
C         -7.48201        7.70817        0.23448
H         -6.77409        7.87114       -0.58578
H         -7.10659        8.23987        1.11643
H         -8.43031        8.17903       -0.04831
O         -8.27484        5.52507        2.79222
O         -9.83277        6.53840        1.45565
C        -10.76882        6.41665        2.53323
C        -12.09022        7.00544        2.07939
H        -10.39980        6.96528        3.40697
H        -10.90327        5.35973        2.78911
H        -12.46160        6.48082        1.19283
H        -11.96767        8.05685        1.79899
H        -12.84100        6.93606        2.87145
