15
	Energy:      -2.1567476
C         -6.71238       -2.32037        4.70695
C         -6.99204       -1.06976        5.09505
H         -6.09005       -2.52043        3.83843
H         -7.10247       -3.17231        5.25332
C         -6.46040        0.09182        4.35059
H         -7.61185       -0.86963        5.96031
O         -5.75105        0.02873        3.36087
O         -6.90006        1.21647        4.96792
C         -6.48094        2.45205        4.37098
C         -5.12754        2.86573        4.91792
H         -6.46701        2.38225        3.27712
H         -7.23035        3.20534        4.63528
H         -4.82624        3.83633        4.51391
H         -4.35936        2.12823        4.66477
H         -5.15817        2.93167        6.01045
