23
	Energy:       0.4291442
C         -6.10138        5.14021       -0.12569
C         -7.59363        4.96145        0.16586
C         -5.72089        4.34406       -1.38131
H         -5.86101        3.26704       -1.23527
H         -4.67124        4.50609       -1.65076
H         -6.33961        4.63883       -2.23671
C         -5.28851        4.65585        1.08186
H         -5.43800        3.58585        1.26549
H         -5.58522        5.18564        1.99442
H         -4.21584        4.81903        0.92938
C         -5.80178        6.62791       -0.36922
H         -4.73938        6.79017       -0.58304
H         -6.06273        7.23469        0.50569
H         -6.37719        7.01476       -1.21833
O         -8.40379        5.87528        0.25258
O         -7.90308        3.64281        0.32816
C         -9.28458        3.38970        0.61031
C         -9.47076        1.89163        0.75130
H         -9.90502        3.76371       -0.21176
H         -9.56795        3.88745        1.54440
H         -9.17095        1.37789       -0.16812
H        -10.51411        1.64676        0.96879
H         -8.83992        1.49881        1.55556
