15
	Energy:      -2.5809546
C         -6.91174       -2.40926        4.81455
C         -6.65873       -1.15042        5.19422
H         -6.63053       -2.77358        3.82974
H         -7.40737       -3.10308        5.48497
C         -5.98314       -0.20469        4.28077
H         -6.93831       -0.78660        6.17523
O         -5.61160       -0.46096        3.14791
O         -5.85565        0.98064        4.92730
C         -5.21122        1.99769        4.15154
C         -5.12837        3.25530        4.99457
H         -5.79484        2.19734        3.24579
H         -4.20234        1.67029        3.87611
H         -4.64186        4.06402        4.44215
H         -4.56498        3.06630        5.91434
H         -6.12849        3.58420        5.29568
