15
	Energy:      -1.7258775
C        -16.74967        1.74741        9.25127
C        -15.77241        1.28000        8.37449
C        -14.75114        2.13282        7.94443
C        -14.71815        3.47080        8.34919
C        -15.66486        3.91213        9.27673
C        -16.68104        3.06045        9.70338
O        -17.59686        3.55489       10.58600
H        -18.22000        2.84584       10.81354
H        -17.53541        1.07596        9.58125
H        -15.62034        4.92219        9.67261
H        -15.79360        0.24812        8.03434
H        -13.97865        1.74229        7.28723
N        -13.62617        4.28168        8.01221
H        -13.19173        4.03427        7.12903
H        -13.82680        5.27514        8.07699
