16
	Energy:       7.8451611
C        -14.92423        2.26292        7.93025
C        -13.79821        1.58009        7.47070
C        -12.64596        2.28548        7.11487
C        -12.60515        3.68134        7.22599
C        -13.74450        4.36111        7.67383
C        -14.88774        3.65016        8.02548
O        -15.96759        4.36012        8.46193
C        -11.38261        4.44468        6.81194
H        -11.25812        5.34285        7.42595
H        -11.46426        4.74095        5.76167
H        -10.47997        3.83766        6.93830
H        -16.68239        3.73628        8.66819
H        -15.81221        1.70187        8.20200
H        -13.81654        0.49666        7.38568
H        -11.77879        1.73875        6.75098
H        -13.74695        5.44525        7.75145
