15
	Energy:      -1.8152522
C        -16.95778        2.00119        9.10413
C        -15.87301        1.39997        8.47122
C        -14.76495        2.16952        8.10572
C        -14.74824        3.55056        8.32723
C        -15.81352        4.13337        9.02068
C        -16.91578        3.36069        9.38431
O        -17.98250        3.90651       10.03720
H        -17.79797        4.84653       10.19606
H        -17.82046        1.41028        9.39723
H        -15.77551        5.18797        9.27164
H        -15.88197        0.33139        8.27521
H        -13.91305        1.67917        7.64214
N        -13.58651        4.29015        8.06690
H        -13.01592        3.90046        7.32266
H        -13.75251        5.28337        7.94002
