14
	Energy:      49.4715805
C        -19.69390        2.47179       10.43967
C        -18.41914        2.34949        9.88404
C        -17.56764        3.45487        9.83540
C        -17.98356        4.68808       10.34087
C        -19.25602        4.82268       10.89890
C        -20.10840        3.71112       10.94622
H        -20.34535        1.60094       10.47005
H        -19.56503        5.79039       11.28843
H        -17.31455        5.54489       10.29948
H        -16.57490        3.35475        9.40137
H        -18.08810        1.39182        9.48821
N        -21.44770        3.84620       11.53177
O        -21.77721        4.95831       11.96899
O        -22.17174        2.84034       11.55516
