16
	Energy:       7.8632668
C        -16.86129        1.88220        9.08320
C        -15.77672        1.31642        8.41144
C        -14.69666        2.11410        8.01027
C        -14.72009        3.48633        8.29235
C        -15.80561        4.05347        8.96486
C        -16.86793        3.24452        9.35464
O        -17.94681        3.75658       10.01289
H        -17.81064        4.71072       10.13024
H        -17.69723        1.26201        9.39314
H        -13.89209        4.12337        7.98982
H        -15.80265        5.11845        9.17285
H        -15.77879        0.24915        8.20254
C        -13.53706        1.49341        7.28895
H        -12.77327        2.23766        7.04070
H        -13.87600        1.03555        6.35412
H        -13.06877        0.72819        7.91630
