14
	Energy:      16.1625224
C        -19.66227        2.25221       10.62578
C        -18.42170        2.28541        9.98553
C        -17.72708        3.48968        9.87207
C        -18.27109        4.66146       10.39800
C        -19.51157        4.62960       11.03849
C        -20.20880        3.42460       11.15315
H        -20.19756        1.30970       10.71022
H        -19.92895        5.54713       11.44582
H        -17.72996        5.59991       10.30968
H        -16.76138        3.51500        9.37357
H        -17.99795        1.37227        9.57577
C        -21.47988        3.39127       11.80930
C        -22.54665        3.36330       12.36000
H        -23.49274        3.33850       12.84839
