10
	Energy:       1.1294075
C         -3.81103       -1.05629        2.12582
C         -3.97794        0.28951        2.80807
H         -4.19039       -1.85589        2.77021
H         -2.76406       -1.27565        1.89261
H         -4.37562       -1.08634        1.18823
C         -3.01700        1.31757        2.26912
H         -3.77265        0.18225        3.87767
H         -5.00088        0.65705        2.67792
O         -3.13130        2.51686        2.49633
H         -2.13249        0.93481        1.73107
