9
	Energy:      -1.8496350
C         -5.36607        4.28621       -0.21649
N         -5.46188        3.77783       -1.25513
C         -5.24491        4.92677        1.09850
C         -5.19059        6.43951        0.97117
H         -4.33918        4.57099        1.60172
H         -6.09620        4.64470        1.72770
H         -6.09666        6.82929        0.49450
H         -4.33233        6.75527        0.36801
H         -5.10035        6.90149        1.95938
