10
	Energy:      -0.9316191
C         -4.32940       -2.08108        2.80463
C         -3.22478       -1.89569        3.82588
H         -3.91753       -2.35221        1.82680
H         -5.01429       -2.87351        3.12150
H         -4.90712       -1.15944        2.67728
C         -2.28343       -0.80641        3.38792
H         -2.66211       -2.82622        3.95094
H         -3.64573       -1.61097        4.79508
O         -1.06475       -0.94444        3.34988
H         -2.74790        0.16671        3.15279
