15
	Energy:       8.0047821
C        -12.71605       -1.03095        6.99928
C        -12.22565        0.07451        6.06528
H        -13.43231       -0.63704        7.72935
H        -11.88784       -1.49594        7.54384
H        -13.24411       -1.80982        6.43744
C        -11.55336        1.19676        6.85489
H        -12.24739        1.63346        7.58208
H        -11.24883        2.01275        6.18965
H        -10.66962        0.83829        7.39267
C        -11.27008       -0.49215        5.01743
H        -10.37749       -0.92798        5.47795
H        -10.95298        0.28814        4.31604
H        -11.76340       -1.26503        4.41691
O        -13.35081        0.61688        5.37293
H        -13.96402        0.97983        6.03477
