18
	Energy:      16.9775894
C        -12.12144       -0.25688        7.14056
C        -13.15458        0.64709        6.45743
H        -12.49738       -0.65119        8.09054
H        -11.19458        0.28604        7.35517
H        -11.88198       -1.12079        6.51053
C        -13.59353        1.77861        7.39453
H        -13.97322        1.38918        8.34507
H        -14.40282        2.36509        6.94542
H        -12.76122        2.45222        7.62561
C        -12.51941        1.26294        5.20244
H        -13.24001        1.89664        4.67229
H        -11.64017        1.86876        5.44568
H        -12.21613        0.48143        4.49593
O        -14.27805       -0.10639        5.97670
C        -15.06021       -0.78543        6.94696
H        -15.52198       -0.08543        7.64743
H        -15.86395       -1.30939        6.42144
H        -14.47067       -1.53291        7.48314
