18
	Energy:      16.9775475
C        -12.63054       -0.85570        7.51266
C        -12.58171        0.44475        6.70170
H        -12.88579       -0.66696        8.56076
H        -11.66475       -1.37236        7.49870
H        -13.39481       -1.53372        7.11669
C        -11.61260        1.44823        7.33814
H        -11.86549        1.64266        8.38579
H        -11.65150        2.41173        6.81777
H        -10.58142        1.07955        7.31310
C        -12.09744        0.12307        5.28053
H        -12.07519        1.02831        4.66250
H        -12.78276       -0.57383        4.78397
H        -11.09566       -0.31928        5.28131
O        -13.89059        1.00955        6.53197
C        -14.57742        1.40733        7.70855
H        -14.75827        0.55799        8.37165
H        -15.54986        1.80867        7.40854
H        -14.03937        2.19877        8.23580
