
                                 *****************
                                 * O   R   C   A *
                                 *****************

           --- An Ab Initio, DFT and Semiempirical electronic structure package ---

                  #######################################################
                  #                        -***-                        #
                  #  Department of molecular theory and spectroscopy    #
                  #              Directorship: Frank Neese              #
                  # Max Planck Institute for Chemical Energy Conversion #
                  #                  D-45470 Muelheim/Ruhr              #
                  #                       Germany                       #
                  #                                                     #
                  #                  All rights reserved                #
                  #                        -***-                        #
                  #######################################################


                         Program Version 4.0.0.2 - RELEASE -


 With contributions from (in alphabetic order):
   Daniel Aravena         : Magnetic Properties
   Michael Atanasov       : Ab Initio Ligand Field Theory
   Ute Becker             : Parallelization
   Martin Brehm           : Molecular dynamics
   Dmytro Bykov           : SCF Hessian
   Vijay G. Chilkuri      : MRCI spin determinant printing
   Dipayan Datta          : RHF DLPNO-CCSD density
   Achintya Kumar Dutta   : EOM-CC, STEOM-CC
   Dmitry Ganyushin       : Spin-Orbit,Spin-Spin,Magnetic field MRCI
   Yang Guo               : DLPNO-NEVPT2, CIM, IAO-localization
   Andreas Hansen         : Spin unrestricted coupled pair/coupled cluster methods
   Lee Huntington         : MR-EOM, pCC
   Robert Izsak           : Overlap fitted RIJCOSX, COSX-SCS-MP3, EOM
   Christian Kollmar      : KDIIS, OOCD, Brueckner-CCSD(T), CCSD density
   Simone Kossmann        : Meta GGA functionals, TD-DFT gradient, OOMP2, MP2 Hessian
   Martin Krupicka        : AUTO-CI
   Dagmar Lenk            : GEPOL surface
   Dimitrios Liakos       : Extrapolation schemes; parallel MDCI
   Dimitrios Manganas     : ROCIS; embedding schemes
   Dimitrios Pantazis     : SARC Basis sets
   Taras Petrenko         : DFT Hessian,TD-DFT gradient, ASA, ECA, R-Raman, ABS, FL, XAS/XES, NRVS
   Peter Pinski           : DLPNO-MP2
   Christoph Reimann      : Effective Core Potentials
   Marius Retegan         : Local ZFS, SOC
   Christoph Riplinger    : Optimizer, TS searches, QM/MM, DLPNO-CCSD(T), (RO)-DLPNO pert. Triples
   Tobias Risthaus        : Range-separated hybrids, TD-DFT gradient, RPA, STAB
   Michael Roemelt        : Restricted open shell CIS
   Masaaki Saitow         : Open-shell DLPNO
   Barbara Sandhoefer     : DKH picture change effects
   Kantharuban Sivalingam : CASSCF convergence, NEVPT2, FIC-MRCI
   Georgi Stoychev        : AutoAux
   Boris Wezisla          : Elementary symmetry handling
   Frank Wennmohs         : Technical directorship


 We gratefully acknowledge several colleagues who have allowed us to
 interface, adapt or use parts of their codes:
   Stefan Grimme, W. Hujo, H. Kruse,             : VdW corrections, initial TS optimization,
                  C. Bannwarth                     DFT functionals, gCP, sTDA/sTD-DF
   Ed Valeev                                     : LibInt (2-el integral package), F12 methods
   Garnet Chan, S. Sharma, J. Yang, R. Olivares  : DMRG
   Ulf Ekstrom                                   : XCFun DFT Library
   Mihaly Kallay                                 : mrcc  (arbitrary order and MRCC methods)
   Jiri Pittner, Ondrej Demel                    : Mk-CCSD
   Frank Weinhold                                : gennbo (NPA and NBO analysis)
   Christopher J. Cramer and Donald G. Truhlar   : smd solvation model


 Your calculation uses the libint2 library for the computation of 2-el integrals
 For citations please refer to: http://libint.valeyev.net

 This ORCA versions uses:
   CBLAS   interface :  Fast vector & matrix operations
   LAPACKE interface :  Fast linear algebra routines
   SCALAPACK package :  Parallel linear algebra routines




*****************************************
The coordinations will be read from file: guess.xyz
*****************************************



Information: The global flag for chemical shieldings has been found
             ==>> will calculate the chemical shifts for all atoms in the system

Your calculation utilizes the basis: cc-pVDZ 
       H, B-Ne : Obtained from the ccRepo (grant-hill.group.shef.ac.uk/ccrepo) Feb. 2017
                 T. H. Dunning, Jr., J. Chem. Phys. 90, 1007 (1989)
            He : Obtained from the ccRepo (grant-hill.group.shef.ac.uk/ccrepo) Feb. 2017
                 D. E. Woon, T. H. Dunning, Jr., J. Chem. Phys. 100, 2975 (1994)
  Li-Be, Na-Mg : Obtained from the ccRepo (grant-hill.group.shef.ac.uk/ccrepo) Feb. 2017
                 B. P. Prascher, D. E. Woon, K. A. Peterson, T. H. Dunning, Jr., A. K. Wilson, Theor. Chem. Acc. 128, 69 (2011)
         Al-Ar : Obtained from the ccRepo (grant-hill.group.shef.ac.uk/ccrepo) Feb. 2017
                 D. E. Woon, T. H. Dunning, Jr., J. Chem. Phys. 98, 1358 (1993)
            Ca : Obtained from the Peterson Research Group Website (tyr0.chem.wsu.edu/~kipeters) Feb. 2017
                 J. Koput, K. A. Peterson, J. Phys. Chem. 106, 9595 (2002)
         Sc-Zn : Obtained from the ccRepo (grant-hill.group.shef.ac.uk/ccrepo) Feb. 2017
                 N. B. Balabanov, K. A. Peterson, J. Chem. Phys. 123, 064107 (2005)
                 N. B. Balabanov, K. A. Peterson, J. Chem. Phys. 125, 074110 (2006)
         Ga-Kr : Obtained from the ccRepo (grant-hill.group.shef.ac.uk/ccrepo) Feb. 2017
                 A. K. Wilson, D. E. Woon, K. A. Peterson, T. H. Dunning, Jr., J. Chem. Phys. 110, 7667 (1999)

Your calculation utilizes the auxiliary basis: def2/J
   F. Weigend, Phys. Chem. Chem. Phys. 8, 1057 (2006).

================================================================================
                                        WARNINGS
                       Please study these warnings very carefully!
================================================================================

Warning: TCutStore was < 0. Adjusted to Thresh (uncritical)

INFO   : the flag for use of LIBINT has been found!

CheckInput: checking for shifts: .
================================================================================
                                       INPUT FILE
================================================================================
NAME = /home/jan/SoftwareDevelopment/karminus/output/bp86_ccpvdz/benzonitrile/benzonitrile.in
|  1> !cc-pvdz BP86 NMR
|  2> 
|  3> *xyzfile 0 1 guess.xyz
|  4> 
|  5> 
|  6>                          ****END OF INPUT****
================================================================================

                       ****************************
                       * Single Point Calculation *
                       ****************************

---------------------------------
CARTESIAN COORDINATES (ANGSTROEM)
---------------------------------
  C    -19.737300    2.306740   10.656530
  C    -18.440980    2.316970   10.021940
  C    -17.705650    3.481450    9.863770
  C    -18.272370    4.634440   10.389520
  C    -19.568480    4.618590   11.062050
  C    -20.364960    3.443420   11.214610
  H    -20.243230    1.345590   10.671550
  H    -19.881580    5.594420   11.431750
  H    -17.691190    5.556960   10.269040
  H    -16.735630    3.483370    9.348210
  H    -18.002700    1.392910    9.638850
  C    -21.751990    3.314180   11.860660
  N    -22.801950    3.130990   12.316460

----------------------------
CARTESIAN COORDINATES (A.U.)
----------------------------
  NO LB      ZA    FRAG     MASS         X           Y           Z
   0 C     6.0000    0    12.011  -37.298092    4.359107   20.137923
   1 C     6.0000    0    12.011  -34.848402    4.378439   18.938722
   2 C     6.0000    0    12.011  -33.458830    6.578987   18.639824
   3 C     6.0000    0    12.011  -34.529775    8.757822   19.633347
   4 C     6.0000    0    12.011  -36.979068    8.727870   20.904245
   5 C     6.0000    0    12.011  -38.484197    6.507121   21.192542
   6 H     1.0000    0     1.008  -38.254161    2.542797   20.166307
   7 H     1.0000    0     1.008  -37.570741   10.571922   21.602877
   8 H     1.0000    0     1.008  -33.431504   10.501133   19.405673
   9 H     1.0000    0     1.008  -31.625757    6.582615   17.665557
  10 H     1.0000    0     1.008  -34.020173    2.632218   18.214787
  11 C     6.0000    0    12.011  -41.105304    6.262893   22.413399
  12 N     7.0000    0    14.007  -43.089441    5.916714   23.274736

--------------------------------
INTERNAL COORDINATES (ANGSTROEM)
--------------------------------
 C      0   0   0     0.000000000000     0.00000000     0.00000000
 C      1   0   0     1.443348420652     0.00000000     0.00000000
 C      2   1   0     1.386268959546   122.17607920     0.00000000
 C      3   2   1     1.388153651798   115.97245149     1.90340842
 C      4   3   2     1.460290709243   121.85465623   359.70204703
 C      1   2   3     1.413312344954   124.52586056   357.73043753
 H      1   2   3     1.086278089533   115.50900914   176.57972682
 H      5   4   3     1.089474134112   113.68037867   179.42058512
 H      4   3   2     1.096963432937   116.14310541   179.79169017
 H      3   2   1     1.098519276299   121.56106312   182.15604603
 H      2   1   3     1.092123706409   120.57438946   180.37827102
 C      6   1   2     1.535557163052   119.97303540   179.73616655
 N     12   6   1     1.159192916516   175.48005042   352.08182989

---------------------------
INTERNAL COORDINATES (A.U.)
---------------------------
 C      0   0   0     0.000000000000     0.00000000     0.00000000
 C      1   0   0     2.727533230861     0.00000000     0.00000000
 C      2   1   0     2.619668681497   122.17607920     0.00000000
 C      3   2   1     2.623230233701   115.97245149     1.90340842
 C      4   3   2     2.759549516378   121.85465623   359.70204703
 C      1   2   3     2.670773273654   124.52586056   357.73043753
 H      1   2   3     2.052768094497   115.50900914   176.57972682
 H      5   4   3     2.058807743463   113.68037867   179.42058512
 H      4   3   2     2.072960467176   116.14310541   179.79169017
 H      3   2   1     2.075900585038   121.56106312   182.15604603
 H      2   1   3     2.063814709476   120.57438946   180.37827102
 C      6   1   2     2.901782501149   119.97303540   179.73616655
 N     12   6   1     2.190557148596   175.48005042   352.08182989

---------------------
BASIS SET INFORMATION
---------------------
There are 3 groups of distinct atoms

 Group   1 Type C   : 17s4p1d contracted to 3s2p1d pattern {881/31/1}
 Group   2 Type H   : 4s1p contracted to 2s1p pattern {31/1}
 Group   3 Type N   : 17s4p1d contracted to 3s2p1d pattern {881/31/1}

Atom   0C    basis set group =>   1
Atom   1C    basis set group =>   1
Atom   2C    basis set group =>   1
Atom   3C    basis set group =>   1
Atom   4C    basis set group =>   1
Atom   5C    basis set group =>   1
Atom   6H    basis set group =>   2
Atom   7H    basis set group =>   2
Atom   8H    basis set group =>   2
Atom   9H    basis set group =>   2
Atom  10H    basis set group =>   2
Atom  11C    basis set group =>   1
Atom  12N    basis set group =>   3
-------------------------------
AUXILIARY BASIS SET INFORMATION
-------------------------------
There are 3 groups of distinct atoms

 Group   1 Type C   : 12s5p4d2f1g contracted to 6s4p3d1f1g pattern {711111/2111/211/2/1}
 Group   2 Type H   : 5s2p1d contracted to 3s1p1d pattern {311/2/1}
 Group   3 Type N   : 12s5p4d2f1g contracted to 6s4p3d1f1g pattern {711111/2111/211/2/1}

Atom   0C    basis set group =>   1
Atom   1C    basis set group =>   1
Atom   2C    basis set group =>   1
Atom   3C    basis set group =>   1
Atom   4C    basis set group =>   1
Atom   5C    basis set group =>   1
Atom   6H    basis set group =>   2
Atom   7H    basis set group =>   2
Atom   8H    basis set group =>   2
Atom   9H    basis set group =>   2
Atom  10H    basis set group =>   2
Atom  11C    basis set group =>   1
Atom  12N    basis set group =>   3
------------------------------------------------------------------------------
                           ORCA GTO INTEGRAL CALCULATION
                           -- RI-GTO INTEGRALS CHOSEN --
------------------------------------------------------------------------------

                         BASIS SET STATISTICS AND STARTUP INFO

Gaussian basis set:
 # of primitive gaussian shells          ...  201
 # of primitive gaussian functions       ...  307
 # of contracted shells                  ...   63
 # of contracted basis functions         ...  137
 Highest angular momentum                ...    2
 Maximum contraction depth               ...    8
Auxiliary gaussian basis set:
 # of primitive gaussian shells          ...  232
 # of primitive gaussian functions       ...  640
 # of contracted shells                  ...  145
 # of contracted aux-basis functions     ...  447
 Highest angular momentum                ...    4
 Maximum contraction depth               ...    7
Ratio of auxiliary to basis functions    ...  3.26
Integral package used                  ... LIBINT
 One Electron integrals                  ... done
 Ordering auxiliary basis shells         ... done
 Integral threshhold             Thresh  ...  1.000e-10
 Primitive cut-off               TCut    ...  1.000e-11
 Pre-screening matrix                    ... done
 Shell pair data                         ... 
 Ordering of the shell pairs             ... done (   0.000 sec) 1951 of 2016 pairs
 Determination of significant pairs      ... done (   0.000 sec)
 Creation of shell pair data             ... done (   0.002 sec)
 Storage of shell pair data              ... done (   0.001 sec)
 Shell pair data done in (   0.004 sec)
 Computing two index integrals           ... done
 Cholesky decomposition of the V-matrix  ... done


Timings:
 Total evaluation time                   ...   0.301 sec (  0.005 min)
 One electron matrix time                ...   0.022 sec (  0.000 min) =  7.4%
 Schwartz matrix evaluation time         ...   0.245 sec (  0.004 min) = 81.2%
 Two index repulsion integral time       ...   0.005 sec (  0.000 min) =  1.7%
 Cholesky decomposition of V             ...   0.005 sec (  0.000 min) =  1.7%
 Three index repulsion integral time     ...   0.000 sec (  0.000 min) =  0.0%

-------------------------------------------------------------------------------
                                 ORCA SCF
-------------------------------------------------------------------------------

------------
SCF SETTINGS
------------
Hamiltonian:
 Density Functional     Method          .... DFT(GTOs)
 Exchange Functional    Exchange        .... B88
   X-Alpha parameter    XAlpha          ....  0.666667
   Becke's b parameter  XBeta           ....  0.004200
 Correlation Functional Correlation     .... P86
 LDA part of GGA corr.  LDAOpt          .... PW91-LDA
 Gradients option       PostSCFGGA      .... off
 RI-approximation to the Coulomb term is turned on
   Number of auxiliary basis functions  .... 447


General Settings:
 Integral files         IntName         .... /home/jan/SoftwareDevelopment/karminus/output/bp86_ccpvdz/benzonitrile/benzonitrile
 Hartree-Fock type      HFTyp           .... RHF
 Total Charge           Charge          ....    0
 Multiplicity           Mult            ....    1
 Number of Electrons    NEL             ....   54
 Basis Dimension        Dim             ....  137
 Nuclear Repulsion      ENuc            ....    292.2795603890 Eh

Convergence Acceleration:
 DIIS                   CNVDIIS         .... on
   Start iteration      DIISMaxIt       ....    12
   Startup error        DIISStart       ....  0.200000
   # of expansion vecs  DIISMaxEq       ....     5
   Bias factor          DIISBfac        ....   1.050
   Max. coefficient     DIISMaxC        ....  10.000
 Newton-Raphson         CNVNR           .... off
 SOSCF                  CNVSOSCF        .... on
   Start iteration      SOSCFMaxIt      ....   150
   Startup grad/error   SOSCFStart      ....  0.003300
 Level Shifting         CNVShift        .... on
   Level shift para.    LevelShift      ....    0.2500
   Turn off err/grad.   ShiftErr        ....    0.0010
 Zerner damping         CNVZerner       .... off
 Static damping         CNVDamp         .... on
   Fraction old density DampFac         ....    0.7000
   Max. Damping (<1)    DampMax         ....    0.9800
   Min. Damping (>=0)   DampMin         ....    0.0000
   Turn off err/grad.   DampErr         ....    0.1000
 Fernandez-Rico         CNVRico         .... off

SCF Procedure:
 Maximum # iterations   MaxIter         ....   125
 SCF integral mode      SCFMode         .... Direct
   Integral package                     .... LIBINT
 Reset frequeny         DirectResetFreq ....    20
 Integral Threshold     Thresh          ....  1.000e-10 Eh
 Primitive CutOff       TCut            ....  1.000e-11 Eh

Convergence Tolerance:
 Convergence Check Mode ConvCheckMode   .... Total+1el-Energy
 Convergence forced     ConvForced      .... 0
 Energy Change          TolE            ....  1.000e-06 Eh
 1-El. energy change                    ....  1.000e-03 Eh
 Orbital Gradient       TolG            ....  5.000e-05
 Orbital Rotation angle TolX            ....  5.000e-05
 DIIS Error             TolErr          ....  1.000e-06


Diagonalization of the overlap matrix:
Smallest eigenvalue                        ... 3.462e-04
Time for diagonalization                   ...    0.004 sec
Threshold for overlap eigenvalues          ... 1.000e-08
Number of eigenvalues below threshold      ... 0
Time for construction of square roots      ...    0.001 sec
Total time needed                          ...    0.005 sec

-------------------
DFT GRID GENERATION
-------------------

General Integration Accuracy     IntAcc      ...  4.340
Radial Grid Type                 RadialGrid  ... Gauss-Chebyshev
Angular Grid (max. acc.)         AngularGrid ... Lebedev-110
Angular grid pruning method      GridPruning ... 3 (G Style)
Weight generation scheme         WeightScheme... Becke
Basis function cutoff            BFCut       ...    1.0000e-10
Integration weight cutoff        WCut        ...    1.0000e-14
Grids for H and He will be reduced by one unit

# of grid points (after initial pruning)     ...  17264 (   0.0 sec)
# of grid points (after weights+screening)   ...  16217 (   0.0 sec)
nearest neighbour list constructed           ...    0.0 sec
Grid point re-assignment to atoms done       ...    0.0 sec
Grid point division into batches done        ...    0.0 sec
Reduced shell lists constructed in    0.4 sec

Total number of grid points                  ...    16217
Total number of batches                      ...      260
Average number of points per batch           ...       62
Average number of grid points per atom       ...     1247
Average number of shells per batch           ...    48.56 (77.08%)
Average number of basis functions per batch  ...   104.25 (76.09%)
Average number of large shells per batch     ...    37.39 (76.99%)
Average number of large basis fcns per batch ...    81.08 (77.77%)
Maximum spatial batch extension              ...  19.63, 20.95, 33.13 au
Average spatial batch extension              ...   4.45,  4.36,  5.02 au

Time for grid setup =    0.448 sec

------------------------------
INITIAL GUESS: MODEL POTENTIAL
------------------------------
Loading Hartree-Fock densities                     ... done
Calculating cut-offs                               ... done
Setting up the integral package                    ... done
Initializing the effective Hamiltonian             ... done
Starting the Coulomb interaction                   ... done (   0.3 sec)
Reading the grid                                   ... done
Mapping shells                                     ... done
Starting the XC term evaluation                    ... done (   0.4 sec)
  promolecular density results
     # of electrons  =     53.991198615
     EX              =    -43.890620882
     EC              =     -1.921550292
     EX+EC           =    -45.812171174
Transforming the Hamiltonian                       ... done (   0.0 sec)
Diagonalizing the Hamiltonian                      ... done (   0.0 sec)
Back transforming the eigenvectors                 ... done (   0.0 sec)
Now organizing SCF variables                       ... done
                      ------------------
                      INITIAL GUESS DONE (   1.3 sec)
                      ------------------
--------------
SCF ITERATIONS
--------------
ITER       Energy         Delta-E        Max-DP      RMS-DP      [F,P]     Damp
               ***  Starting incremental Fock matrix formation  ***
  0   -324.3242462567   0.000000000000 0.09007070  0.00282443  0.2639622 0.7000
  1   -324.4105148112  -0.086268554581 0.04563469  0.00165524  0.0677758 0.7000
                               ***Turning on DIIS***
  2   -324.4319035228  -0.021388711604 0.04604171  0.00232382  0.0484256 0.0000
  3   -324.4823635475  -0.050460024706 0.02299054  0.00119946  0.0324846 0.0000
  4   -324.4879331185  -0.005569570997 0.01528379  0.00042686  0.0462880 0.0000
  5   -324.4904433310  -0.002510212435 0.00278837  0.00011951  0.0071850 0.0000
  6   -324.4905500780  -0.000106747059 0.00177517  0.00004771  0.0042925 0.0000
                      *** Initiating the SOSCF procedure ***
                           *** Shutting down DIIS ***
                      *** Re-Reading the Fockian *** 
                      *** Removing any level shift *** 
ITER      Energy       Delta-E        Grad      Rot      Max-DP    RMS-DP
  7   -324.49056810  -0.0000180227  0.000140  0.000140  0.000588  0.000022
               *** Restarting incremental Fock matrix formation ***
  8   -324.49056778   0.0000003197  0.000331  0.001908  0.001078  0.000043
  9   -324.49055708   0.0000107025  0.001015  0.001362  0.000871  0.000033
 10   -324.49056881  -0.0000117326  0.000131  0.000438  0.000549  0.000015
 11   -324.49056765   0.0000011628  0.000341  0.000394  0.000370  0.000011
 12   -324.49056898  -0.0000013271  0.000019  0.000088  0.000095  0.000004
 13   -324.49056894   0.0000000314  0.000033  0.000050  0.000061  0.000002
                 **** Energy Check signals convergence ****
              ***Rediagonalizing the Fockian in SOSCF/NRSCF***

               *****************************************************
               *                     SUCCESS                       *
               *           SCF CONVERGED AFTER  14 CYCLES          *
               *****************************************************

Setting up the final grid:

General Integration Accuracy     IntAcc      ...  4.670
Radial Grid Type                 RadialGrid  ... Gauss-Chebyshev
Angular Grid (max. acc.)         AngularGrid ... Lebedev-302
Angular grid pruning method      GridPruning ... 3 (G Style)
Weight generation scheme         WeightScheme... Becke
Basis function cutoff            BFCut       ...    1.0000e-10
Integration weight cutoff        WCut        ...    1.0000e-14
Grids for H and He will be reduced by one unit

# of grid points (after initial pruning)     ...  66666 (   0.0 sec)
# of grid points (after weights+screening)   ...  61981 (   0.1 sec)
nearest neighbour list constructed           ...    0.0 sec
Grid point re-assignment to atoms done       ...    0.0 sec
Grid point division into batches done        ...    0.2 sec
Reduced shell lists constructed in    1.5 sec

Total number of grid points                  ...    61981
Total number of batches                      ...      975
Average number of points per batch           ...       63
Average number of grid points per atom       ...     4768
Average number of shells per batch           ...    43.71 (69.38%)
Average number of basis functions per batch  ...    93.56 (68.29%)
Average number of large shells per batch     ...    33.01 (75.51%)
Average number of large basis fcns per batch ...    71.44 (76.36%)
Maximum spatial batch extension              ...  19.83, 18.57, 22.54 au
Average spatial batch extension              ...   2.78,  2.73,  2.97 au

Final grid set up in    1.6 sec
Final integration                            ... done (   1.5 sec)
Change in XC energy                          ...    -0.000222831
Integrated number of electrons               ...    54.000017274
Previous integrated no of electrons          ...    53.996225029

----------------
TOTAL SCF ENERGY
----------------

Total Energy       :         -324.49079182 Eh           -8829.84335 eV

Components:
Nuclear Repulsion  :          292.27956039 Eh            7953.33118 eV
Electronic Energy  :         -616.77035221 Eh          -16783.17452 eV
One Electron Energy:        -1014.90853314 Eh          -27617.06521 eV
Two Electron Energy:          398.13818093 Eh           10833.89069 eV

Virial components:
Potential Energy   :         -646.21586553 Eh          -17584.42768 eV
Kinetic Energy     :          321.72507371 Eh            8754.58433 eV
Virial Ratio       :            2.00859653


DFT components:
N(Alpha)           :       27.000008637068 electrons
N(Beta)            :       27.000008637068 electrons
N(Total)           :       54.000017274135 electrons
E(X)               :      -44.626152800871 Eh       
E(C)               :       -1.936145195246 Eh       
E(XC)              :      -46.562297996117 Eh       

---------------
SCF CONVERGENCE
---------------

  Last Energy change         ...   -4.4821e-08  Tolerance :   1.0000e-06
  Last MAX-Density change    ...    5.8539e-06  Tolerance :   1.0000e-05
  Last RMS-Density change    ...    1.9401e-07  Tolerance :   1.0000e-06
  Last Orbital Gradient      ...    1.1276e-06  Tolerance :   5.0000e-05
  Last Orbital Rotation      ...    3.3161e-06  Tolerance :   5.0000e-05

             **** THE GBW FILE WAS UPDATED (/home/jan/SoftwareDevelopment/karminus/output/bp86_ccpvdz/benzonitrile/benzonitrile.gbw) ****
             **** DENSITY FILE WAS UPDATED (/home/jan/SoftwareDevelopment/karminus/output/bp86_ccpvdz/benzonitrile/benzonitrile.scfp.tmp) ****
             **** ENERGY FILE WAS UPDATED (/home/jan/SoftwareDevelopment/karminus/output/bp86_ccpvdz/benzonitrile/benzonitrile.en.tmp) ****
----------------
ORBITAL ENERGIES
----------------

  NO   OCC          E(Eh)            E(eV) 
   0   2.0000     -14.024136      -381.6162 
   1   2.0000      -9.987491      -271.7734 
   2   2.0000      -9.966356      -271.1983 
   3   2.0000      -9.957486      -270.9570 
   4   2.0000      -9.952222      -270.8137 
   5   2.0000      -9.947763      -270.6924 
   6   2.0000      -9.944581      -270.6058 
   7   2.0000      -9.942650      -270.5533 
   8   2.0000      -0.835204       -22.7271 
   9   2.0000      -0.800151       -21.7732 
  10   2.0000      -0.720179       -19.5971 
  11   2.0000      -0.688858       -18.7448 
  12   2.0000      -0.588156       -16.0045 
  13   2.0000      -0.571588       -15.5537 
  14   2.0000      -0.510007       -13.8780 
  15   2.0000      -0.462160       -12.5760 
  16   2.0000      -0.429288       -11.6815 
  17   2.0000      -0.419174       -11.4063 
  18   2.0000      -0.380830       -10.3629 
  19   2.0000      -0.361774        -9.8444 
  20   2.0000      -0.347493        -9.4558 
  21   2.0000      -0.326859        -8.8943 
  22   2.0000      -0.318520        -8.6674 
  23   2.0000      -0.315063        -8.5733 
  24   2.0000      -0.304322        -8.2810 
  25   2.0000      -0.256679        -6.9846 
  26   2.0000      -0.243850        -6.6355 
  27   0.0000      -0.086937        -2.3657 
  28   0.0000      -0.070544        -1.9196 
  29   0.0000      -0.014485        -0.3941 
  30   0.0000       0.018228         0.4960 
  31   0.0000       0.021923         0.5966 
  32   0.0000       0.061856         1.6832 
  33   0.0000       0.068534         1.8649 
  34   0.0000       0.095194         2.5904 
  35   0.0000       0.099677         2.7124 
  36   0.0000       0.110263         3.0004 
  37   0.0000       0.117989         3.2106 
  38   0.0000       0.198988         5.4147 
  39   0.0000       0.219323         5.9681 
  40   0.0000       0.230279         6.2662 
  41   0.0000       0.244747         6.6599 
  42   0.0000       0.286746         7.8028 
  43   0.0000       0.347937         9.4678 
  44   0.0000       0.378561        10.3012 
  45   0.0000       0.390203        10.6180 
  46   0.0000       0.397209        10.8086 
  47   0.0000       0.413490        11.2516 
  48   0.0000       0.433046        11.7838 
  49   0.0000       0.444178        12.0867 
  50   0.0000       0.448796        12.2124 
  51   0.0000       0.457427        12.4472 
  52   0.0000       0.460565        12.5326 
  53   0.0000       0.470400        12.8002 
  54   0.0000       0.493984        13.4420 
  55   0.0000       0.506243        13.7756 
  56   0.0000       0.524983        14.2855 
  57   0.0000       0.563238        15.3265 
  58   0.0000       0.573224        15.5982 
  59   0.0000       0.577774        15.7220 
  60   0.0000       0.585773        15.9397 
  61   0.0000       0.615533        16.7495 
  62   0.0000       0.624337        16.9891 
  63   0.0000       0.631075        17.1724 
  64   0.0000       0.631830        17.1930 
  65   0.0000       0.701541        19.0899 
  66   0.0000       0.746704        20.3189 
  67   0.0000       0.771169        20.9846 
  68   0.0000       0.781755        21.2726 
  69   0.0000       0.807778        21.9807 
  70   0.0000       0.817573        22.2473 
  71   0.0000       0.828795        22.5527 
  72   0.0000       0.829876        22.5821 
  73   0.0000       0.851520        23.1710 
  74   0.0000       0.902624        24.5617 
  75   0.0000       0.912043        24.8179 
  76   0.0000       0.930665        25.3247 
  77   0.0000       0.939868        25.5751 
  78   0.0000       0.953223        25.9385 
  79   0.0000       0.968187        26.3457 
  80   0.0000       0.968824        26.3630 
  81   0.0000       0.975295        26.5391 
  82   0.0000       0.985770        26.8242 
  83   0.0000       1.044749        28.4291 
  84   0.0000       1.073218        29.2038 
  85   0.0000       1.117281        30.4028 
  86   0.0000       1.235760        33.6268 
  87   0.0000       1.242197        33.8019 
  88   0.0000       1.285204        34.9722 
  89   0.0000       1.338734        36.4288 
  90   0.0000       1.361260        37.0418 
  91   0.0000       1.379844        37.5475 
  92   0.0000       1.388210        37.7751 
  93   0.0000       1.413802        38.4715 
  94   0.0000       1.432053        38.9681 
  95   0.0000       1.464408        39.8486 
  96   0.0000       1.519463        41.3467 
  97   0.0000       1.527374        41.5620 
  98   0.0000       1.533369        41.7251 
  99   0.0000       1.552141        42.2359 
 100   0.0000       1.573352        42.8131 
 101   0.0000       1.578264        42.9468 
 102   0.0000       1.593893        43.3720 
 103   0.0000       1.610931        43.8357 
 104   0.0000       1.646457        44.8024 
 105   0.0000       1.651663        44.9440 
 106   0.0000       1.657855        45.1125 
 107   0.0000       1.675644        45.5966 
 108   0.0000       1.728971        47.0477 
 109   0.0000       1.749325        47.6016 
 110   0.0000       1.759684        47.8834 
 111   0.0000       1.784352        48.5547 
 112   0.0000       1.814242        49.3680 
 113   0.0000       1.829418        49.7810 
 114   0.0000       1.833249        49.8852 
 115   0.0000       1.866703        50.7956 
 116   0.0000       1.874699        51.0131 
 117   0.0000       1.886552        51.3357 
 118   0.0000       1.899019        51.6749 
 119   0.0000       2.009479        54.6807 
 120   0.0000       2.070105        56.3304 
 121   0.0000       2.081428        56.6385 
 122   0.0000       2.127967        57.9049 
 123   0.0000       2.248813        61.1933 
 124   0.0000       2.271120        61.8003 
 125   0.0000       2.319593        63.1193 
 126   0.0000       2.383159        64.8491 
 127   0.0000       2.490628        67.7734 
 128   0.0000       2.499244        68.0079 
 129   0.0000       2.540264        69.1241 
 130   0.0000       2.558693        69.6256 
 131   0.0000       2.608233        70.9736 
 132   0.0000       2.733397        74.3795 
 133   0.0000       2.735081        74.4253 
 134   0.0000       2.764223        75.2183 
 135   0.0000       2.809771        76.4577 
 136   0.0000       3.341336        90.9224 

                    ********************************
                    * MULLIKEN POPULATION ANALYSIS *
                    ********************************

-----------------------
MULLIKEN ATOMIC CHARGES
-----------------------
   0 C :    0.044104
   1 C :    0.019918
   2 C :    0.026724
   3 C :    0.011403
   4 C :    0.014073
   5 C :    0.041653
   6 H :   -0.001905
   7 H :   -0.004469
   8 H :    0.002942
   9 H :   -0.000464
  10 H :   -0.002187
  11 C :   -0.072353
  12 N :   -0.079439
Sum of atomic charges:   -0.0000000

--------------------------------
MULLIKEN REDUCED ORBITAL CHARGES
--------------------------------
  0 C s       :     3.176539  s :     3.176539
      pz      :     0.948728  p :     2.720899
      px      :     0.901514
      py      :     0.870658
      dz2     :     0.008397  d :     0.058458
      dxz     :     0.008608
      dyz     :     0.007995
      dx2y2   :     0.015060
      dxy     :     0.018398
  1 C s       :     3.132787  s :     3.132787
      pz      :     0.953093  p :     2.787054
      px      :     0.935536
      py      :     0.898426
      dz2     :     0.005288  d :     0.060241
      dxz     :     0.008398
      dyz     :     0.009910
      dx2y2   :     0.017898
      dxy     :     0.018746
  2 C s       :     3.137332  s :     3.137332
      pz      :     0.921950  p :     2.772426
      px      :     0.857465
      py      :     0.993011
      dz2     :     0.005289  d :     0.063519
      dxz     :     0.006849
      dyz     :     0.013244
      dx2y2   :     0.022109
      dxy     :     0.016027
  3 C s       :     3.144726  s :     3.144726
      pz      :     0.966766  p :     2.784621
      px      :     0.912810
      py      :     0.905044
      dz2     :     0.007778  d :     0.059250
      dxz     :     0.008193
      dyz     :     0.008837
      dx2y2   :     0.015241
      dxy     :     0.019200
  4 C s       :     3.212336  s :     3.212336
      pz      :     0.942672  p :     2.717467
      px      :     0.911394
      py      :     0.863401
      dz2     :     0.005593  d :     0.056124
      dxz     :     0.008319
      dyz     :     0.009712
      dx2y2   :     0.016867
      dxy     :     0.015633
  5 C s       :     3.168639  s :     3.168639
      pz      :     0.966161  p :     2.712368
      px      :     0.775142
      py      :     0.971065
      dz2     :     0.007917  d :     0.077340
      dxz     :     0.011311
      dyz     :     0.013976
      dx2y2   :     0.023208
      dxy     :     0.020927
  6 H s       :     0.973757  s :     0.973757
      pz      :     0.005971  p :     0.028148
      px      :     0.007741
      py      :     0.014436
  7 H s       :     0.976375  s :     0.976375
      pz      :     0.007458  p :     0.028094
      px      :     0.006119
      py      :     0.014518
  8 H s       :     0.969331  s :     0.969331
      pz      :     0.005951  p :     0.027727
      px      :     0.007996
      py      :     0.013780
  9 H s       :     0.973101  s :     0.973101
      pz      :     0.008368  p :     0.027363
      px      :     0.014575
      py      :     0.004420
 10 H s       :     0.974238  s :     0.974238
      pz      :     0.007452  p :     0.027949
      px      :     0.006601
      py      :     0.013896
 11 C s       :     3.140501  s :     3.140501
      pz      :     0.950968  p :     2.864271
      px      :     0.963017
      py      :     0.950286
      dz2     :     0.011566  d :     0.067581
      dxz     :     0.019474
      dyz     :     0.004014
      dx2y2   :     0.014613
      dxy     :     0.017914
 12 N s       :     3.600244  s :     3.600244
      pz      :     1.095583  p :     3.441255
      px      :     1.310155
      py      :     1.035517
      dz2     :     0.005751  d :     0.037940
      dxz     :     0.010848
      dyz     :     0.002167
      dx2y2   :     0.008996
      dxy     :     0.010178


                     *******************************
                     * LOEWDIN POPULATION ANALYSIS *
                     *******************************

----------------------
LOEWDIN ATOMIC CHARGES
----------------------
   0 C :    0.006355
   1 C :   -0.019176
   2 C :   -0.021067
   3 C :   -0.019073
   4 C :    0.005400
   5 C :   -0.075243
   6 H :    0.036037
   7 H :    0.034678
   8 H :    0.036754
   9 H :    0.039820
  10 H :    0.035771
  11 C :   -0.077498
  12 N :    0.017240

-------------------------------
LOEWDIN REDUCED ORBITAL CHARGES
-------------------------------
  0 C s       :     2.834601  s :     2.834601
      pz      :     0.951155  p :     2.977180
      px      :     1.008355
      py      :     1.017671
      dz2     :     0.022745  d :     0.181863
      dxz     :     0.027178
      dyz     :     0.022996
      dx2y2   :     0.049965
      dxy     :     0.058978
  1 C s       :     2.830172  s :     2.830172
      pz      :     0.956596  p :     3.001029
      px      :     1.010987
      py      :     1.033446
      dz2     :     0.016138  d :     0.187975
      dxz     :     0.026261
      dyz     :     0.027220
      dx2y2   :     0.058535
      dxy     :     0.059821
  2 C s       :     2.822096  s :     2.822096
      pz      :     0.939344  p :     2.997439
      px      :     0.997438
      py      :     1.060658
      dz2     :     0.015794  d :     0.201532
      dxz     :     0.021913
      dyz     :     0.039320
      dx2y2   :     0.068248
      dxy     :     0.056257
  3 C s       :     2.836495  s :     2.836495
      pz      :     0.963748  p :     2.999374
      px      :     1.001379
      py      :     1.034247
      dz2     :     0.021782  d :     0.183204
      dxz     :     0.026294
      dyz     :     0.025165
      dx2y2   :     0.050757
      dxy     :     0.059206
  4 C s       :     2.843877  s :     2.843877
      pz      :     0.957472  p :     2.977077
      px      :     1.004821
      py      :     1.014785
      dz2     :     0.015942  d :     0.173646
      dxz     :     0.025041
      dyz     :     0.026373
      dx2y2   :     0.054858
      dxy     :     0.051431
  5 C s       :     2.830679  s :     2.830679
      pz      :     0.980003  p :     3.016607
      px      :     0.974168
      py      :     1.062436
      dz2     :     0.020877  d :     0.227958
      dxz     :     0.031047
      dyz     :     0.038648
      dx2y2   :     0.072287
      dxy     :     0.065099
  6 H s       :     0.881020  s :     0.881020
      pz      :     0.017433  p :     0.082943
      px      :     0.022855
      py      :     0.042655
  7 H s       :     0.882456  s :     0.882456
      pz      :     0.021318  p :     0.082866
      px      :     0.018336
      py      :     0.043211
  8 H s       :     0.883134  s :     0.883134
      pz      :     0.017207  p :     0.080112
      px      :     0.024288
      py      :     0.038617
  9 H s       :     0.881448  s :     0.881448
      pz      :     0.023018  p :     0.078732
      px      :     0.040677
      py      :     0.015037
 10 H s       :     0.883419  s :     0.883419
      pz      :     0.021251  p :     0.080809
      px      :     0.020505
      py      :     0.039053
 11 C s       :     2.923244  s :     2.923244
      pz      :     0.954237  p :     2.956265
      px      :     1.084287
      py      :     0.917741
      dz2     :     0.029753  d :     0.197989
      dxz     :     0.059518
      dyz     :     0.010182
      dx2y2   :     0.052035
      dxy     :     0.046501
 12 N s       :     3.374310  s :     3.374310
      pz      :     1.103680  p :     3.534435
      px      :     1.398610
      py      :     1.032145
      dz2     :     0.009817  d :     0.074015
      dxz     :     0.022796
      dyz     :     0.003420
      dx2y2   :     0.021767
      dxy     :     0.016216


                      *****************************
                      * MAYER POPULATION ANALYSIS *
                      *****************************

  NA   - Mulliken gross atomic population
  ZA   - Total nuclear charge
  QA   - Mulliken gross atomic charge
  VA   - Mayer's total valence
  BVA  - Mayer's bonded valence
  FA   - Mayer's free valence

  ATOM       NA         ZA         QA         VA         BVA        FA
  0 C      5.9559     6.0000     0.0441     3.9736     3.9736    -0.0000
  1 C      5.9801     6.0000     0.0199     4.0085     4.0085     0.0000
  2 C      5.9733     6.0000     0.0267     4.0046     4.0046     0.0000
  3 C      5.9886     6.0000     0.0114     3.9915     3.9915    -0.0000
  4 C      5.9859     6.0000     0.0141     3.9479     3.9479     0.0000
  5 C      5.9583     6.0000     0.0417     3.8363     3.8363    -0.0000
  6 H      1.0019     1.0000    -0.0019     0.9793     0.9793    -0.0000
  7 H      1.0045     1.0000    -0.0045     0.9799     0.9799     0.0000
  8 H      0.9971     1.0000     0.0029     0.9714     0.9714     0.0000
  9 H      1.0005     1.0000    -0.0005     0.9708     0.9708    -0.0000
 10 H      1.0022     1.0000    -0.0022     0.9703     0.9703     0.0000
 11 C      6.0724     6.0000    -0.0724     4.1313     4.1313    -0.0000
 12 N      7.0794     7.0000    -0.0794     3.2928     3.2928    -0.0000

  Mayer bond orders larger than 0.1
B(  0-C ,  1-C ) :   1.4460 B(  0-C ,  5-C ) :   1.3949 B(  0-C ,  6-H ) :   0.9393 
B(  1-C ,  2-C ) :   1.4599 B(  1-C , 10-H ) :   0.9360 B(  2-C ,  3-C ) :   1.4549 
B(  2-C ,  9-H ) :   0.9393 B(  3-C ,  4-C ) :   1.4357 B(  3-C ,  8-H ) :   0.9379 
B(  4-C ,  5-C ) :   1.3713 B(  4-C ,  7-H ) :   0.9481 B(  5-C , 11-C ) :   0.9387 
B( 11-C , 12-N ) :   3.1803 

-------
TIMINGS
-------

Total SCF time: 0 days 0 hours 0 min 17 sec 

Total time                  ....      17.659 sec
Sum of individual times     ....      17.632 sec  ( 99.8%)

Fock matrix formation       ....      14.688 sec  ( 83.2%)
  Split-RI-J                ....       7.187 sec  ( 48.9% of F)
  XC integration            ....       7.489 sec  ( 51.0% of F)
    Basis function eval.    ....       4.867 sec  ( 65.0% of XC)
    Density eval.           ....       0.781 sec  ( 10.4% of XC)
    XC-Functional eval.     ....       0.418 sec  (  5.6% of XC)
    XC-Potential eval.      ....       1.315 sec  ( 17.6% of XC)
Diagonalization             ....       0.024 sec  (  0.1%)
Density matrix formation    ....       0.003 sec  (  0.0%)
Population analysis         ....       0.005 sec  (  0.0%)
Initial guess               ....       0.820 sec  (  4.6%)
Orbital Transformation      ....       0.000 sec  (  0.0%)
Orbital Orthonormalization  ....       0.000 sec  (  0.0%)
DIIS solution               ....       0.008 sec  (  0.0%)
SOSCF solution              ....       0.010 sec  (  0.1%)
Grid generation             ....       2.075 sec  ( 11.7%)

-------------------------   --------------------
FINAL SINGLE POINT ENERGY      -324.490791820076
-------------------------   --------------------


                            ***************************************
                            *     ORCA property calculations      *
                            ***************************************

                                    ---------------------
                                    Active property flags
                                    ---------------------
   (+) Dipole Moment
   (+) Chemical Shifts


------------------------------------------------------------------------------
                       ORCA ELECTRIC PROPERTIES CALCULATION
------------------------------------------------------------------------------

Dipole Moment Calculation                       ... on
Quadrupole Moment Calculation                   ... off
Polarizability Calculation                      ... off
GBWName                                         ... /home/jan/SoftwareDevelopment/karminus/output/bp86_ccpvdz/benzonitrile/benzonitrile.gbw
Electron density file                           ... /home/jan/SoftwareDevelopment/karminus/output/bp86_ccpvdz/benzonitrile/benzonitrile.scfp.tmp

-------------
DIPOLE MOMENT
-------------
                                X             Y             Z
Electronic contribution:     -4.60683      -0.18344       2.29728
Nuclear contribution   :      6.14092       0.33042      -3.02471
                        -----------------------------------------
Total Dipole Moment    :      1.53409       0.14699      -0.72743
                        -----------------------------------------
Magnitude (a.u.)       :      1.70417
Magnitude (Debye)      :      4.33166

------------------------------------------------------------------------------
                                ORCA EPR/NMR CALCULATION
------------------------------------------------------------------------------

GBWName                      ... /home/jan/SoftwareDevelopment/karminus/output/bp86_ccpvdz/benzonitrile/benzonitrile.gbw
Electron density file        ... /home/jan/SoftwareDevelopment/karminus/output/bp86_ccpvdz/benzonitrile/benzonitrile.scfp.tmp
Spin density file            ... /home/jan/SoftwareDevelopment/karminus/output/bp86_ccpvdz/benzonitrile/benzonitrile.scfr.tmp
Treatment of gauge           ... GIAO (approximations 1/2el = 0,3)
Details of the CP(SCF) procedure:
       Solver   = POPLE   
       MaxIter  =    64   
       Tolerance=    1.000e-06
       Op-0     =   0- 26 =>  27-136
Multiplicity                 ... 1
g-tensor                     ... 0
NMR chemical shifts          ... 1
Number of nuclei for epr/nmr ... 13
   Nucleus:   0C 
       Hyperfine : Isotope=   13 I=   0.500 P= 134.188
       Quadrupole: Isotope=   13 I=   0.500 Q=   0.000
       Spin-Orbit: Zeff=   3.600
       rho(0)=N f(grad)=N a(iso)=N a(dip)=N a(orb)=N sigma(nmr)=Y
   Nucleus:   1C 
       Hyperfine : Isotope=   13 I=   0.500 P= 134.188
       Quadrupole: Isotope=   13 I=   0.500 Q=   0.000
       Spin-Orbit: Zeff=   3.600
       rho(0)=N f(grad)=N a(iso)=N a(dip)=N a(orb)=N sigma(nmr)=Y
   Nucleus:   2C 
       Hyperfine : Isotope=   13 I=   0.500 P= 134.188
       Quadrupole: Isotope=   13 I=   0.500 Q=   0.000
       Spin-Orbit: Zeff=   3.600
       rho(0)=N f(grad)=N a(iso)=N a(dip)=N a(orb)=N sigma(nmr)=Y
   Nucleus:   3C 
       Hyperfine : Isotope=   13 I=   0.500 P= 134.188
       Quadrupole: Isotope=   13 I=   0.500 Q=   0.000
       Spin-Orbit: Zeff=   3.600
       rho(0)=N f(grad)=N a(iso)=N a(dip)=N a(orb)=N sigma(nmr)=Y
   Nucleus:   4C 
       Hyperfine : Isotope=   13 I=   0.500 P= 134.188
       Quadrupole: Isotope=   13 I=   0.500 Q=   0.000
       Spin-Orbit: Zeff=   3.600
       rho(0)=N f(grad)=N a(iso)=N a(dip)=N a(orb)=N sigma(nmr)=Y
   Nucleus:   5C 
       Hyperfine : Isotope=   13 I=   0.500 P= 134.188
       Quadrupole: Isotope=   13 I=   0.500 Q=   0.000
       Spin-Orbit: Zeff=   3.600
       rho(0)=N f(grad)=N a(iso)=N a(dip)=N a(orb)=N sigma(nmr)=Y
   Nucleus:   6H 
       Hyperfine : Isotope=    1 I=   0.500 P= 533.552
       Quadrupole: Isotope=    2 I=   1.000 Q=   0.003
       Spin-Orbit: Zeff=   1.000
       rho(0)=N f(grad)=N a(iso)=N a(dip)=N a(orb)=N sigma(nmr)=Y
   Nucleus:   7H 
       Hyperfine : Isotope=    1 I=   0.500 P= 533.552
       Quadrupole: Isotope=    2 I=   1.000 Q=   0.003
       Spin-Orbit: Zeff=   1.000
       rho(0)=N f(grad)=N a(iso)=N a(dip)=N a(orb)=N sigma(nmr)=Y
   Nucleus:   8H 
       Hyperfine : Isotope=    1 I=   0.500 P= 533.552
       Quadrupole: Isotope=    2 I=   1.000 Q=   0.003
       Spin-Orbit: Zeff=   1.000
       rho(0)=N f(grad)=N a(iso)=N a(dip)=N a(orb)=N sigma(nmr)=Y
   Nucleus:   9H 
       Hyperfine : Isotope=    1 I=   0.500 P= 533.552
       Quadrupole: Isotope=    2 I=   1.000 Q=   0.003
       Spin-Orbit: Zeff=   1.000
       rho(0)=N f(grad)=N a(iso)=N a(dip)=N a(orb)=N sigma(nmr)=Y
   Nucleus:  10H 
       Hyperfine : Isotope=    1 I=   0.500 P= 533.552
       Quadrupole: Isotope=    2 I=   1.000 Q=   0.003
       Spin-Orbit: Zeff=   1.000
       rho(0)=N f(grad)=N a(iso)=N a(dip)=N a(orb)=N sigma(nmr)=Y
   Nucleus:  11C 
       Hyperfine : Isotope=   13 I=   0.500 P= 134.188
       Quadrupole: Isotope=   13 I=   0.500 Q=   0.000
       Spin-Orbit: Zeff=   3.600
       rho(0)=N f(grad)=N a(iso)=N a(dip)=N a(orb)=N sigma(nmr)=Y
   Nucleus:  12N 
       Hyperfine : Isotope=   14 I=   1.000 P=  38.571
       Quadrupole: Isotope=   14 I=   1.000 Q=   0.020
       Spin-Orbit: Zeff=   4.550
       rho(0)=N f(grad)=N a(iso)=N a(dip)=N a(orb)=N sigma(nmr)=Y
Using LibInt in CPSCF-CP

Forming RHS of the CP-SCF equations         ... 
Calculating right hand sides for GIAO treatment (new)  ... 
  Entering RightHandSide GIAO. ScalHFX=    0.0000 NeedHFX=0
     -> 1-electron GIAO integrals will be done analytically
     -> RI used in SCF and no Fock exchange. RIJK enforced by the user
     Making grid for GIAO integrations   ... done
     Test of existence of the V matrix   = 1
     Test of existence of the VCD matrix = 1
     Test of existence of the VO matrix  = 0
     Warning: RI is turned on for GIAO but the V matrix or its Cholesky decomposition are not found - making it
     Calculating V           ... done
     Cholesky decomposition  ... done
     Storing V and VCD       ... done
     Cholesky decomposition-2... done
     Storing VO              ... done
  Getting the pre-screening matrix        ... done
  Extracting occupied and virtual blocks  ... 
  Operator  0  NO=  27 NV= 110 
  One-electron GIAO integrals             ...   done
  Transforming and RHS contribution       ...   done
  Calculating F[B](P)                     ...  (RI-JK)
---------------------
RI-GIAO-TRANSFORMATION (AUX index driven)
----------------------

Dimension of the orbital-basis         ... 137
Dimension of the aux-basis             ... 447
Number of (i,a) MOs                    ... 27,110
Number of ij,ia,ab pairs               ... 729,2970,12100
Transformation of internal MOs         ...    0-  26
Transformation of internal/external MOs...    0-  26 to   27- 136

Mapping shells                                 ... done
Making shell addresses                         ... done
Figuring out significant basis function pairs  ... done
  N(Pairs)         ... 9453
  N(Strong pairs)  ... 9055
  Mem-Available    ... 1024 MB
  (p,q) per batch  ... 37527
  N(Batches)       ... 1
Preparing matrix containers                    ... done
Preparing AO buffer                            ... done
Calculating AO integrals and transforming AUX  ... done
Finished RI-GIAO integral generation and aux-index transformation in  5.660 sec
Mapping the MO pairs                            ... done
Getting memory                                  ... done
Second Phase: sorting and transformation of MO indices
Memory available                       ... 1024 MB 
Max. # Aux fcns treated in a batch     ... 447    
Initializing the MO transformation process      ... done
Batch   0: Q=   0 ...  446
   Reading      ... done
   Transforming ... done
Finished transformation of the MO indices in  1.749 sec
Initializing the sorting process                ... done

IJ-Resorting
# of internal pairs                    ... 729
# batches for internal pairs           ... 1
   (0) Reading      ... done
   (0) Writing      ... done
   (1) Reading      ... done
   (1) Writing      ... done
   (2) Reading      ... done
   (2) Writing      ... done
   (3) Reading      ... done
   (3) Writing      ... done
(ij|v) resorting done in     0.022 sec

IA-Resorting
# of internal orbitals                 ... 27
# batches for internal orbitals        ... 1
   (0) Reading      ... done
   (0) Writing      ... done
   (1) Reading      ... done
   (1) Writing      ... done
   (2) Reading      ... done
   (2) Writing      ... done
   (3) Reading      ... done
   (3) Writing      ... done
(ia|v) resorting done in     0.049 sec

  Resorting completed in     0.072 sec
RI-GIAO-Integral transformation completed in     7.529 sec
Reading RI-integrals ... done
Doing RI-JK          ... done
 => dG/dB done
  RI-JK GIAO contributions                ...   done
  DFT XC-terms                            ... done
  Transforming to MO basis/RHS contribs.  ... done
  GIAO profiling information: 
    Total GIAO time               ...      15.4 sec
       Grid setup                 ...       0.4 sec (  2.6%)
       RI-V-matrix setup          ...       0.0 sec (  0.3%)
       GIAO 1-electron integrals  ...       0.0 sec (  0.2%)
       GIAO RI-JK                 ...       6.0 sec ( 38.8%)
       GIAO RI integral trafo     ...       7.5 sec ( 48.8%)
       GIAO XC-terms              ...       1.4 sec (  9.2%)
       Right hand side assembly   ...       0.0 sec (  0.0%)

  GIAO right hand side done


Forming final perturbed densities           ... done
Transforming perturbed density to AO basis  ...  done

Magnetic field perturbation calculated in 15.529 sec

---------------
CHEMICAL SHIFTS
---------------

Note: using conversion factor for au to ppm alpha^2/2 =   26.625677252 
Doing GIAO para- and diamagnetic shielding integrals analytically     ...done
Doing remaining GIAO terms numerically                                ...done
 --------------
 Nucleus   0C :
 --------------

Diamagnetic contribution to the shielding tensor (ppm) : 
           253.746         -3.520       -21.052
            -3.127        264.575         5.210
           -17.470         -0.762       223.226

Paramagnetic contribution to the shielding tensor (ppm): 
          -211.508        -49.813        72.975
           -30.892       -275.772       -30.950
            77.420        -13.605       -80.994

Total shielding tensor (ppm): 
            42.237        -53.333        51.923
           -34.020        -11.197       -25.740
            59.950        -14.367       142.232


 Diagonalized sT*s matrix:
 
 sDSO           261.313          264.656          215.578  iso=     247.182
 sPSO          -260.043         -267.164          -41.067  iso=    -189.425
        ---------------  ---------------  ---------------
 Total            1.269           -2.508          174.511  iso=      57.757

 --------------
 Nucleus   1C :
 --------------

Diamagnetic contribution to the shielding tensor (ppm) : 
           276.731         -8.638        36.661
            -5.557        267.151       -16.209
            25.510        -21.756       332.282

Paramagnetic contribution to the shielding tensor (ppm): 
          -218.214         32.636        25.083
            23.261       -271.591       -25.420
            38.104        -29.167      -198.731

Total shielding tensor (ppm): 
            58.517         23.998        61.744
            17.704         -4.440       -41.629
            63.615        -50.923       133.552


 Diagonalized sT*s matrix:
 
 sDSO           261.429          264.129          350.606  iso=     292.055
 sPSO          -290.270         -221.979         -176.286  iso=    -229.512
        ---------------  ---------------  ---------------
 Total          -28.841           42.150          174.319  iso=      62.543

 --------------
 Nucleus   2C :
 --------------

Diamagnetic contribution to the shielding tensor (ppm) : 
           267.808         -7.923        11.066
            -1.297        266.328        -2.702
             9.784        -14.018       284.378

Paramagnetic contribution to the shielding tensor (ppm): 
          -263.642         -2.690        79.887
            -8.654       -211.555       -16.290
            79.320         -5.276      -155.292

Total shielding tensor (ppm): 
             4.166        -10.612        90.953
            -9.951         54.773       -18.992
            89.104        -19.294       129.086


 Diagonalized sT*s matrix:
 
 sDSO           262.799          263.770          291.945  iso=     272.838
 sPSO          -305.731         -212.772         -111.986  iso=    -210.163
        ---------------  ---------------  ---------------
 Total          -42.932           50.997          179.960  iso=      62.675

 --------------
 Nucleus   3C :
 --------------

Diamagnetic contribution to the shielding tensor (ppm) : 
           274.714         -8.808        18.137
            -5.332        265.113        -8.005
            22.619        -11.253       300.161

Paramagnetic contribution to the shielding tensor (ppm): 
          -228.150        -45.436        36.700
           -41.476       -274.109        -4.347
            32.989          4.196      -158.153

Total shielding tensor (ppm): 
            46.564        -54.244        54.837
           -46.808         -8.997       -12.352
            55.608         -7.057       142.008


 Diagonalized sT*s matrix:
 
 sDSO           261.797          264.164          314.027  iso=     279.996
 sPSO          -285.887         -233.010         -141.516  iso=    -220.138
        ---------------  ---------------  ---------------
 Total          -24.090           31.153          172.512  iso=      59.858

 --------------
 Nucleus   4C :
 --------------

Diamagnetic contribution to the shielding tensor (ppm) : 
           233.413         10.109       -64.048
            16.612        259.699        26.865
           -56.153         17.021       137.046

Paramagnetic contribution to the shielding tensor (ppm): 
          -183.167          8.846       133.112
           -24.361       -267.887       -62.495
           116.026        -62.712        -0.839

Total shielding tensor (ppm): 
            50.246         18.955        69.063
            -7.749         -8.188       -35.629
            59.873        -45.691       136.208


 Diagonalized sT*s matrix:
 
 sDSO           260.937          265.214          104.008  iso=     210.053
 sPSO          -261.610         -263.013           72.729  iso=    -150.631
        ---------------  ---------------  ---------------
 Total           -0.673            2.201          176.738  iso=      59.422

 --------------
 Nucleus   5C :
 --------------

Diamagnetic contribution to the shielding tensor (ppm) : 
           277.461         -3.979        10.857
            -2.835        261.347        -5.758
            17.935        -11.754       286.712

Paramagnetic contribution to the shielding tensor (ppm): 
          -266.584         -7.329        57.449
            -4.199       -182.165        -6.845
            49.746          1.020      -169.534

Total shielding tensor (ppm): 
            10.877        -11.308        68.306
            -7.034         79.182       -12.603
            67.681        -10.734       117.178


 Diagonalized sT*s matrix:
 
 sDSO           267.883          259.137          298.500  iso=     275.173
 sPSO          -290.083         -182.870         -145.329  iso=    -206.094
        ---------------  ---------------  ---------------
 Total          -22.200           76.267          153.170  iso=      69.079

 --------------
 Nucleus   6H :
 --------------

Diamagnetic contribution to the shielding tensor (ppm) : 
            23.417          7.591       -15.594
             6.618         39.765         2.064
           -15.713          5.083        -0.155

Paramagnetic contribution to the shielding tensor (ppm): 
             1.739        -10.282        12.730
            -7.790        -15.588        -0.930
            13.304         -2.896        22.665

Total shielding tensor (ppm): 
            25.156         -2.691        -2.865
            -1.172         24.177         1.134
            -2.409          2.187        22.510


 Diagonalized sT*s matrix:
 
 sDSO            -8.744           42.084           29.686  iso=      21.009
 sPSO            29.557          -19.372           -1.370  iso=       2.939
        ---------------  ---------------  ---------------
 Total           20.814           22.712           28.317  iso=      23.948

 --------------
 Nucleus   7H :
 --------------

Diamagnetic contribution to the shielding tensor (ppm) : 
             5.244          7.004       -53.398
             7.048         35.247        27.295
           -49.672         24.395       -70.783

Paramagnetic contribution to the shielding tensor (ppm): 
            20.379         -4.058        51.557
            -5.742        -10.861       -27.228
            47.243        -24.875        92.707

Total shielding tensor (ppm): 
            25.623          2.946        -1.841
             1.306         24.386         0.066
            -2.429         -0.480        21.924


 Diagonalized sT*s matrix:
 
 sDSO          -101.267           41.936           29.039  iso=     -10.097
 sPSO           122.050          -18.597           -1.227  iso=      34.075
        ---------------  ---------------  ---------------
 Total           20.782           23.339           27.812  iso=      23.978

 --------------
 Nucleus   8H :
 --------------

Diamagnetic contribution to the shielding tensor (ppm) : 
            41.233          1.911        15.925
             2.716         40.670        -7.628
            18.562         -9.911        59.959

Paramagnetic contribution to the shielding tensor (ppm): 
           -16.869         -3.838       -18.094
            -3.842        -16.301         8.952
           -20.653         11.450       -37.754

Total shielding tensor (ppm): 
            24.365         -1.927        -2.169
            -1.127         24.369         1.323
            -2.091          1.539        22.204


 Diagonalized sT*s matrix:
 
 sDSO            71.456           42.442           27.964  iso=      47.287
 sPSO           -50.626          -19.516           -0.782  iso=     -23.641
        ---------------  ---------------  ---------------
 Total           20.830           22.926           27.182  iso=      23.646

 --------------
 Nucleus   9H :
 --------------

Diamagnetic contribution to the shielding tensor (ppm) : 
            66.968        -12.289        47.056
           -10.442         31.971       -20.217
            47.248        -23.844       133.670

Paramagnetic contribution to the shielding tensor (ppm): 
           -44.477         12.785       -47.414
            10.896         -5.435        21.033
           -47.744         24.726      -111.841

Total shielding tensor (ppm): 
            22.491          0.496        -0.357
             0.454         26.536         0.815
            -0.495          0.882        21.830


 Diagonalized sT*s matrix:
 
 sDSO           162.745           42.590           27.275  iso=      77.537
 sPSO          -141.309          -19.891           -0.553  iso=     -53.918
        ---------------  ---------------  ---------------
 Total           21.436           22.699           26.722  iso=      23.619

 --------------
 Nucleus  10H :
 --------------

Diamagnetic contribution to the shielding tensor (ppm) : 
            49.273        -14.591        40.213
           -13.773         43.256       -14.236
            35.567        -14.040       111.337

Paramagnetic contribution to the shielding tensor (ppm): 
           -23.941         16.854       -42.006
            15.396        -18.687        14.205
           -37.285         13.375       -89.559

Total shielding tensor (ppm): 
            25.332          2.263        -1.794
             1.623         24.569        -0.030
            -1.717         -0.665        21.779


 Diagonalized sT*s matrix:
 
 sDSO           132.925           43.119           27.823  iso=      67.956
 sPSO          -111.928          -19.823           -0.436  iso=     -44.062
        ---------------  ---------------  ---------------
 Total           20.997           23.297           27.387  iso=      23.894

 --------------
 Nucleus  11C :
 --------------

Diamagnetic contribution to the shielding tensor (ppm) : 
           268.570          8.963       -37.138
             9.200        249.583         7.915
           -34.702          9.447       210.451

Paramagnetic contribution to the shielding tensor (ppm): 
           -41.356         28.731       -71.791
            33.867       -252.530       -24.920
           -72.072        -23.537      -181.583

Total shielding tensor (ppm): 
           227.214         37.694      -108.928
            43.067         -2.946       -17.006
          -106.774        -14.091        28.868


 Diagonalized sT*s matrix:
 
 sDSO           251.385          190.960          286.260  iso=     242.868
 sPSO          -260.453         -209.850           -5.166  iso=    -158.490
        ---------------  ---------------  ---------------
 Total           -9.068          -18.890          281.094  iso=      84.378

 --------------
 Nucleus  12N :
 --------------

Diamagnetic contribution to the shielding tensor (ppm) : 
           333.849          4.359       -19.868
             3.953        340.367         7.471
           -18.226          7.920       304.676

Paramagnetic contribution to the shielding tensor (ppm): 
          -146.243         54.012      -131.802
            46.275       -473.129       -25.447
          -135.585        -30.209      -394.412

Total shielding tensor (ppm): 
           187.606         58.371      -151.669
            50.228       -132.763       -17.976
          -153.811        -22.289       -89.736


 Diagonalized sT*s matrix:
 
 sDSO           341.917          293.667          343.308  iso=     326.297
 sPSO          -481.776         -451.770          -80.238  iso=    -337.928
        ---------------  ---------------  ---------------
 Total         -139.859         -158.104          263.070  iso=     -11.631



--------------------------
CHEMICAL SHIELDING SUMMARY (ppm)
--------------------------


  Nucleus  Element    Isotropic     Anisotropy
  -------  -------  ------------   ------------
      0       C           57.757        175.130 
      1       C           62.543        167.665 
      2       C           62.675        175.927 
      3       C           59.858        168.980 
      4       C           59.422        175.974 
      5       C           69.079        126.137 
      6       H           23.948          6.554 
      7       H           23.978          5.752 
      8       H           23.646          5.304 
      9       H           23.619          4.654 
     10       H           23.894          5.240 
     11       C           84.378        295.073 
     12       N          -11.631        412.051 



Timings for individual modules:

Sum of individual times         ...       60.997 sec (=   1.017 min)
GTO integral calculation        ...        0.323 sec (=   0.005 min)   0.5 %
SCF iterations                  ...       17.675 sec (=   0.295 min)  29.0 %
SCF-level EPR/NMR calculation   ...       42.999 sec (=   0.717 min)  70.5 %
                             ****ORCA TERMINATED NORMALLY****
TOTAL RUN TIME: 0 days 0 hours 1 minutes 1 seconds 118 msec
