
                                 *****************
                                 * O   R   C   A *
                                 *****************

           --- An Ab Initio, DFT and Semiempirical electronic structure package ---

                  #######################################################
                  #                        -***-                        #
                  #  Department of molecular theory and spectroscopy    #
                  #              Directorship: Frank Neese              #
                  # Max Planck Institute for Chemical Energy Conversion #
                  #                  D-45470 Muelheim/Ruhr              #
                  #                       Germany                       #
                  #                                                     #
                  #                  All rights reserved                #
                  #                        -***-                        #
                  #######################################################


                         Program Version 4.0.0.2 - RELEASE -


 With contributions from (in alphabetic order):
   Daniel Aravena         : Magnetic Properties
   Michael Atanasov       : Ab Initio Ligand Field Theory
   Ute Becker             : Parallelization
   Martin Brehm           : Molecular dynamics
   Dmytro Bykov           : SCF Hessian
   Vijay G. Chilkuri      : MRCI spin determinant printing
   Dipayan Datta          : RHF DLPNO-CCSD density
   Achintya Kumar Dutta   : EOM-CC, STEOM-CC
   Dmitry Ganyushin       : Spin-Orbit,Spin-Spin,Magnetic field MRCI
   Yang Guo               : DLPNO-NEVPT2, CIM, IAO-localization
   Andreas Hansen         : Spin unrestricted coupled pair/coupled cluster methods
   Lee Huntington         : MR-EOM, pCC
   Robert Izsak           : Overlap fitted RIJCOSX, COSX-SCS-MP3, EOM
   Christian Kollmar      : KDIIS, OOCD, Brueckner-CCSD(T), CCSD density
   Simone Kossmann        : Meta GGA functionals, TD-DFT gradient, OOMP2, MP2 Hessian
   Martin Krupicka        : AUTO-CI
   Dagmar Lenk            : GEPOL surface
   Dimitrios Liakos       : Extrapolation schemes; parallel MDCI
   Dimitrios Manganas     : ROCIS; embedding schemes
   Dimitrios Pantazis     : SARC Basis sets
   Taras Petrenko         : DFT Hessian,TD-DFT gradient, ASA, ECA, R-Raman, ABS, FL, XAS/XES, NRVS
   Peter Pinski           : DLPNO-MP2
   Christoph Reimann      : Effective Core Potentials
   Marius Retegan         : Local ZFS, SOC
   Christoph Riplinger    : Optimizer, TS searches, QM/MM, DLPNO-CCSD(T), (RO)-DLPNO pert. Triples
   Tobias Risthaus        : Range-separated hybrids, TD-DFT gradient, RPA, STAB
   Michael Roemelt        : Restricted open shell CIS
   Masaaki Saitow         : Open-shell DLPNO
   Barbara Sandhoefer     : DKH picture change effects
   Kantharuban Sivalingam : CASSCF convergence, NEVPT2, FIC-MRCI
   Georgi Stoychev        : AutoAux
   Boris Wezisla          : Elementary symmetry handling
   Frank Wennmohs         : Technical directorship


 We gratefully acknowledge several colleagues who have allowed us to
 interface, adapt or use parts of their codes:
   Stefan Grimme, W. Hujo, H. Kruse,             : VdW corrections, initial TS optimization,
                  C. Bannwarth                     DFT functionals, gCP, sTDA/sTD-DF
   Ed Valeev                                     : LibInt (2-el integral package), F12 methods
   Garnet Chan, S. Sharma, J. Yang, R. Olivares  : DMRG
   Ulf Ekstrom                                   : XCFun DFT Library
   Mihaly Kallay                                 : mrcc  (arbitrary order and MRCC methods)
   Jiri Pittner, Ondrej Demel                    : Mk-CCSD
   Frank Weinhold                                : gennbo (NPA and NBO analysis)
   Christopher J. Cramer and Donald G. Truhlar   : smd solvation model


 Your calculation uses the libint2 library for the computation of 2-el integrals
 For citations please refer to: http://libint.valeyev.net

 This ORCA versions uses:
   CBLAS   interface :  Fast vector & matrix operations
   LAPACKE interface :  Fast linear algebra routines
   SCALAPACK package :  Parallel linear algebra routines




*****************************************
The coordinations will be read from file: guess.xyz
*****************************************



Information: The global flag for chemical shieldings has been found
             ==>> will calculate the chemical shifts for all atoms in the system

Your calculation utilizes the basis: cc-pVDZ 
       H, B-Ne : Obtained from the ccRepo (grant-hill.group.shef.ac.uk/ccrepo) Feb. 2017
                 T. H. Dunning, Jr., J. Chem. Phys. 90, 1007 (1989)
            He : Obtained from the ccRepo (grant-hill.group.shef.ac.uk/ccrepo) Feb. 2017
                 D. E. Woon, T. H. Dunning, Jr., J. Chem. Phys. 100, 2975 (1994)
  Li-Be, Na-Mg : Obtained from the ccRepo (grant-hill.group.shef.ac.uk/ccrepo) Feb. 2017
                 B. P. Prascher, D. E. Woon, K. A. Peterson, T. H. Dunning, Jr., A. K. Wilson, Theor. Chem. Acc. 128, 69 (2011)
         Al-Ar : Obtained from the ccRepo (grant-hill.group.shef.ac.uk/ccrepo) Feb. 2017
                 D. E. Woon, T. H. Dunning, Jr., J. Chem. Phys. 98, 1358 (1993)
            Ca : Obtained from the Peterson Research Group Website (tyr0.chem.wsu.edu/~kipeters) Feb. 2017
                 J. Koput, K. A. Peterson, J. Phys. Chem. 106, 9595 (2002)
         Sc-Zn : Obtained from the ccRepo (grant-hill.group.shef.ac.uk/ccrepo) Feb. 2017
                 N. B. Balabanov, K. A. Peterson, J. Chem. Phys. 123, 064107 (2005)
                 N. B. Balabanov, K. A. Peterson, J. Chem. Phys. 125, 074110 (2006)
         Ga-Kr : Obtained from the ccRepo (grant-hill.group.shef.ac.uk/ccrepo) Feb. 2017
                 A. K. Wilson, D. E. Woon, K. A. Peterson, T. H. Dunning, Jr., J. Chem. Phys. 110, 7667 (1999)

Your calculation utilizes the auxiliary basis: def2/J
   F. Weigend, Phys. Chem. Chem. Phys. 8, 1057 (2006).

================================================================================
                                        WARNINGS
                       Please study these warnings very carefully!
================================================================================

Warning: TCutStore was < 0. Adjusted to Thresh (uncritical)

INFO   : the flag for use of LIBINT has been found!

CheckInput: checking for shifts: .
================================================================================
                                       INPUT FILE
================================================================================
NAME = /home/jan/SoftwareDevelopment/karminus/output/bp86_ccpvdz/propionitrile/propionitrile.in
|  1> !cc-pvdz BP86 NMR
|  2> 
|  3> *xyzfile 0 1 guess.xyz
|  4> 
|  5> 
|  6>                          ****END OF INPUT****
================================================================================

                       ****************************
                       * Single Point Calculation *
                       ****************************

---------------------------------
CARTESIAN COORDINATES (ANGSTROEM)
---------------------------------
  C     -5.642670    2.695000   -0.275860
  N     -5.945500    1.592440   -0.436880
  C     -5.279630    4.135020   -0.048700
  C     -3.892140    4.583340   -0.804690
  H     -5.263580    4.286560    1.051470
  H     -6.166320    4.731720   -0.349450
  H     -2.990370    4.021870   -0.492910
  H     -3.593680    5.642630   -0.670970
  H     -3.901970    4.456970   -1.904450

----------------------------
CARTESIAN COORDINATES (A.U.)
----------------------------
  NO LB      ZA    FRAG     MASS         X           Y           Z
   0 C     6.0000    0    12.011  -10.663101    5.092812   -0.521300
   1 N     7.0000    0    14.007  -11.235367    3.009275   -0.825584
   2 C     6.0000    0    12.011   -9.977055    7.814055   -0.092030
   3 C     6.0000    0    12.011   -7.355079    8.661257   -1.520644
   4 H     1.0000    0     1.008   -9.946725    8.100424    1.986990
   5 H     1.0000    0     1.008  -11.652656    8.941655   -0.660365
   6 H     1.0000    0     1.008   -5.650980    7.600233   -0.931465
   7 H     1.0000    0     1.008   -6.791071   10.663025   -1.267950
   8 H     1.0000    0     1.008   -7.373655    8.422453   -3.598889

--------------------------------
INTERNAL COORDINATES (ANGSTROEM)
--------------------------------
 C      0   0   0     0.000000000000     0.00000000     0.00000000
 N      1   0   0     1.154673981217     0.00000000     0.00000000
 C      1   2   0     1.502350594102   178.62434094     0.00000000
 C      3   1   2     1.642449452068   113.33922045   185.40523946
 H      3   1   2     1.110673670796   106.50171901    59.28049239
 H      3   1   2     1.110279518230   106.33140245   311.14513351
 H      4   3   1     1.107088281123   114.83718177   299.72156132
 H      4   3   1     1.108627400933   115.64015246   179.39588291
 H      4   3   1     1.107040226640   114.74594317    59.14932858

---------------------------
INTERNAL COORDINATES (A.U.)
---------------------------
 C      0   0   0     0.000000000000     0.00000000     0.00000000
 N      1   0   0     2.182017598465     0.00000000     0.00000000
 C      1   2   0     2.839031179988   178.62434094     0.00000000
 C      3   1   2     3.103779653218   113.33922045   185.40523946
 H      3   1   2     2.098869061962   106.50171901    59.28049239
 H      3   1   2     2.098124221556   106.33140245   311.14513351
 H      4   3   1     2.092093657396   114.83718177   299.72156132
 H      4   3   1     2.095002172325   115.64015246   179.39588291
 H      4   3   1     2.092002847584   114.74594317    59.14932858

---------------------
BASIS SET INFORMATION
---------------------
There are 3 groups of distinct atoms

 Group   1 Type C   : 17s4p1d contracted to 3s2p1d pattern {881/31/1}
 Group   2 Type N   : 17s4p1d contracted to 3s2p1d pattern {881/31/1}
 Group   3 Type H   : 4s1p contracted to 2s1p pattern {31/1}

Atom   0C    basis set group =>   1
Atom   1N    basis set group =>   2
Atom   2C    basis set group =>   1
Atom   3C    basis set group =>   1
Atom   4H    basis set group =>   3
Atom   5H    basis set group =>   3
Atom   6H    basis set group =>   3
Atom   7H    basis set group =>   3
Atom   8H    basis set group =>   3
-------------------------------
AUXILIARY BASIS SET INFORMATION
-------------------------------
There are 3 groups of distinct atoms

 Group   1 Type C   : 12s5p4d2f1g contracted to 6s4p3d1f1g pattern {711111/2111/211/2/1}
 Group   2 Type N   : 12s5p4d2f1g contracted to 6s4p3d1f1g pattern {711111/2111/211/2/1}
 Group   3 Type H   : 5s2p1d contracted to 3s1p1d pattern {311/2/1}

Atom   0C    basis set group =>   1
Atom   1N    basis set group =>   2
Atom   2C    basis set group =>   1
Atom   3C    basis set group =>   1
Atom   4H    basis set group =>   3
Atom   5H    basis set group =>   3
Atom   6H    basis set group =>   3
Atom   7H    basis set group =>   3
Atom   8H    basis set group =>   3
------------------------------------------------------------------------------
                           ORCA GTO INTEGRAL CALCULATION
                           -- RI-GTO INTEGRALS CHOSEN --
------------------------------------------------------------------------------

                         BASIS SET STATISTICS AND STARTUP INFO

Gaussian basis set:
 # of primitive gaussian shells          ...  113
 # of primitive gaussian functions       ...  171
 # of contracted shells                  ...   39
 # of contracted basis functions         ...   81
 Highest angular momentum                ...    2
 Maximum contraction depth               ...    8
Auxiliary gaussian basis set:
 # of primitive gaussian shells          ...  136
 # of primitive gaussian functions       ...  360
 # of contracted shells                  ...   85
 # of contracted aux-basis functions     ...  251
 Highest angular momentum                ...    4
 Maximum contraction depth               ...    7
Ratio of auxiliary to basis functions    ...  3.10
Integral package used                  ... LIBINT
 One Electron integrals                  ... done
 Ordering auxiliary basis shells         ... done
 Integral threshhold             Thresh  ...  1.000e-10
 Primitive cut-off               TCut    ...  1.000e-11
 Pre-screening matrix                    ... done
 Shell pair data                         ... 
 Ordering of the shell pairs             ... done (   0.000 sec) 779 of 780 pairs
 Determination of significant pairs      ... done (   0.000 sec)
 Creation of shell pair data             ... done (   0.001 sec)
 Storage of shell pair data              ... done (   0.000 sec)
 Shell pair data done in (   0.002 sec)
 Computing two index integrals           ... done
 Cholesky decomposition of the V-matrix  ... done


Timings:
 Total evaluation time                   ...   0.162 sec (  0.003 min)
 One electron matrix time                ...   0.008 sec (  0.000 min) =  5.1%
 Schwartz matrix evaluation time         ...   0.130 sec (  0.002 min) = 79.9%
 Two index repulsion integral time       ...   0.002 sec (  0.000 min) =  1.2%
 Cholesky decomposition of V             ...   0.001 sec (  0.000 min) =  0.7%
 Three index repulsion integral time     ...   0.000 sec (  0.000 min) =  0.0%

-------------------------------------------------------------------------------
                                 ORCA SCF
-------------------------------------------------------------------------------

------------
SCF SETTINGS
------------
Hamiltonian:
 Density Functional     Method          .... DFT(GTOs)
 Exchange Functional    Exchange        .... B88
   X-Alpha parameter    XAlpha          ....  0.666667
   Becke's b parameter  XBeta           ....  0.004200
 Correlation Functional Correlation     .... P86
 LDA part of GGA corr.  LDAOpt          .... PW91-LDA
 Gradients option       PostSCFGGA      .... off
 RI-approximation to the Coulomb term is turned on
   Number of auxiliary basis functions  .... 251


General Settings:
 Integral files         IntName         .... /home/jan/SoftwareDevelopment/karminus/output/bp86_ccpvdz/propionitrile/propionitrile
 Hartree-Fock type      HFTyp           .... RHF
 Total Charge           Charge          ....    0
 Multiplicity           Mult            ....    1
 Number of Electrons    NEL             ....   30
 Basis Dimension        Dim             ....   81
 Nuclear Repulsion      ENuc            ....     99.7865529432 Eh

Convergence Acceleration:
 DIIS                   CNVDIIS         .... on
   Start iteration      DIISMaxIt       ....    12
   Startup error        DIISStart       ....  0.200000
   # of expansion vecs  DIISMaxEq       ....     5
   Bias factor          DIISBfac        ....   1.050
   Max. coefficient     DIISMaxC        ....  10.000
 Newton-Raphson         CNVNR           .... off
 SOSCF                  CNVSOSCF        .... on
   Start iteration      SOSCFMaxIt      ....   150
   Startup grad/error   SOSCFStart      ....  0.003300
 Level Shifting         CNVShift        .... on
   Level shift para.    LevelShift      ....    0.2500
   Turn off err/grad.   ShiftErr        ....    0.0010
 Zerner damping         CNVZerner       .... off
 Static damping         CNVDamp         .... on
   Fraction old density DampFac         ....    0.7000
   Max. Damping (<1)    DampMax         ....    0.9800
   Min. Damping (>=0)   DampMin         ....    0.0000
   Turn off err/grad.   DampErr         ....    0.1000
 Fernandez-Rico         CNVRico         .... off

SCF Procedure:
 Maximum # iterations   MaxIter         ....   125
 SCF integral mode      SCFMode         .... Direct
   Integral package                     .... LIBINT
 Reset frequeny         DirectResetFreq ....    20
 Integral Threshold     Thresh          ....  1.000e-10 Eh
 Primitive CutOff       TCut            ....  1.000e-11 Eh

Convergence Tolerance:
 Convergence Check Mode ConvCheckMode   .... Total+1el-Energy
 Convergence forced     ConvForced      .... 0
 Energy Change          TolE            ....  1.000e-06 Eh
 1-El. energy change                    ....  1.000e-03 Eh
 Orbital Gradient       TolG            ....  5.000e-05
 Orbital Rotation angle TolX            ....  5.000e-05
 DIIS Error             TolErr          ....  1.000e-06


Diagonalization of the overlap matrix:
Smallest eigenvalue                        ... 3.441e-03
Time for diagonalization                   ...    0.001 sec
Threshold for overlap eigenvalues          ... 1.000e-08
Number of eigenvalues below threshold      ... 0
Time for construction of square roots      ...    0.000 sec
Total time needed                          ...    0.001 sec

-------------------
DFT GRID GENERATION
-------------------

General Integration Accuracy     IntAcc      ...  4.340
Radial Grid Type                 RadialGrid  ... Gauss-Chebyshev
Angular Grid (max. acc.)         AngularGrid ... Lebedev-110
Angular grid pruning method      GridPruning ... 3 (G Style)
Weight generation scheme         WeightScheme... Becke
Basis function cutoff            BFCut       ...    1.0000e-10
Integration weight cutoff        WCut        ...    1.0000e-14
Grids for H and He will be reduced by one unit

# of grid points (after initial pruning)     ...  10640 (   0.0 sec)
# of grid points (after weights+screening)   ...  10204 (   0.0 sec)
nearest neighbour list constructed           ...    0.0 sec
Grid point re-assignment to atoms done       ...    0.0 sec
Grid point division into batches done        ...    0.0 sec
Reduced shell lists constructed in    0.1 sec

Total number of grid points                  ...    10204
Total number of batches                      ...      164
Average number of points per batch           ...       62
Average number of grid points per atom       ...     1134
Average number of shells per batch           ...    33.39 (85.63%)
Average number of basis functions per batch  ...    68.24 (84.25%)
Average number of large shells per batch     ...    27.36 (81.92%)
Average number of large basis fcns per batch ...    55.82 (81.79%)
Maximum spatial batch extension              ...  25.60, 20.37, 21.47 au
Average spatial batch extension              ...   4.52,  4.18,  4.45 au

Time for grid setup =    0.153 sec

------------------------------
INITIAL GUESS: MODEL POTENTIAL
------------------------------
Loading Hartree-Fock densities                     ... done
Calculating cut-offs                               ... done
Setting up the integral package                    ... done
Initializing the effective Hamiltonian             ... done
Starting the Coulomb interaction                   ... done (   0.1 sec)
Reading the grid                                   ... done
Mapping shells                                     ... done
Starting the XC term evaluation                    ... done (   0.2 sec)
  promolecular density results
     # of electrons  =     30.001247584
     EX              =    -23.354360128
     EC              =     -1.037550218
     EX+EC           =    -24.391910346
Transforming the Hamiltonian                       ... done (   0.0 sec)
Diagonalizing the Hamiltonian                      ... done (   0.0 sec)
Back transforming the eigenvectors                 ... done (   0.0 sec)
Now organizing SCF variables                       ... done
                      ------------------
                      INITIAL GUESS DONE (   0.5 sec)
                      ------------------
--------------
SCF ITERATIONS
--------------
ITER       Energy         Delta-E        Max-DP      RMS-DP      [F,P]     Damp
               ***  Starting incremental Fock matrix formation  ***
  0   -171.9325293636   0.000000000000 0.09092679  0.00385499  0.2478773 0.7000
  1   -172.0000556007  -0.067526237159 0.04843250  0.00232129  0.0704118 0.7000
                               ***Turning on DIIS***
  2   -172.0165347617  -0.016479160945 0.04549336  0.00309672  0.0411567 0.0000
  3   -172.0540015638  -0.037466802125 0.03132002  0.00172626  0.0398449 0.0000
  4   -172.0586327545  -0.004631190647 0.01391244  0.00059593  0.0458683 0.0000
  5   -172.0608255908  -0.002192836297 0.00369697  0.00016280  0.0097468 0.0000
  6   -172.0609399649  -0.000114374147 0.00136002  0.00006042  0.0033589 0.0000
                      *** Initiating the SOSCF procedure ***
                           *** Shutting down DIIS ***
                      *** Re-Reading the Fockian *** 
                      *** Removing any level shift *** 
ITER      Energy       Delta-E        Grad      Rot      Max-DP    RMS-DP
  7   -172.06095152  -0.0000115588  0.000098  0.000098  0.000370  0.000025
               *** Restarting incremental Fock matrix formation ***
  8   -172.06095201  -0.0000004871  0.000084  0.000232  0.000455  0.000016
                 **** Energy Check signals convergence ****
              ***Rediagonalizing the Fockian in SOSCF/NRSCF***

               *****************************************************
               *                     SUCCESS                       *
               *           SCF CONVERGED AFTER   9 CYCLES          *
               *****************************************************

Setting up the final grid:

General Integration Accuracy     IntAcc      ...  4.670
Radial Grid Type                 RadialGrid  ... Gauss-Chebyshev
Angular Grid (max. acc.)         AngularGrid ... Lebedev-302
Angular grid pruning method      GridPruning ... 3 (G Style)
Weight generation scheme         WeightScheme... Becke
Basis function cutoff            BFCut       ...    1.0000e-10
Integration weight cutoff        WCut        ...    1.0000e-14
Grids for H and He will be reduced by one unit

# of grid points (after initial pruning)     ...  41818 (   0.0 sec)
# of grid points (after weights+screening)   ...  39788 (   0.0 sec)
nearest neighbour list constructed           ...    0.0 sec
Grid point re-assignment to atoms done       ...    0.0 sec
Grid point division into batches done        ...    0.1 sec
Reduced shell lists constructed in    0.6 sec

Total number of grid points                  ...    39788
Total number of batches                      ...      628
Average number of points per batch           ...       63
Average number of grid points per atom       ...     4421
Average number of shells per batch           ...    30.51 (78.24%)
Average number of basis functions per batch  ...    62.03 (76.58%)
Average number of large shells per batch     ...    24.66 (80.81%)
Average number of large basis fcns per batch ...    50.08 (80.74%)
Maximum spatial batch extension              ...  19.42, 18.83, 18.70 au
Average spatial batch extension              ...   2.90,  2.88,  2.90 au

Final grid set up in    0.7 sec
Final integration                            ... done (   0.6 sec)
Change in XC energy                          ...     0.000126677
Integrated number of electrons               ...    29.999991355
Previous integrated no of electrons          ...    30.001474671

----------------
TOTAL SCF ENERGY
----------------

Total Energy       :         -172.06082489 Eh           -4682.01307 eV

Components:
Nuclear Repulsion  :           99.78655294 Eh            2715.33015 eV
Electronic Energy  :         -271.84737783 Eh           -7397.34322 eV
One Electron Energy:         -428.03348090 Eh          -11647.38316 eV
Two Electron Energy:          156.18610307 Eh            4250.03993 eV

Virial components:
Potential Energy   :         -342.53172146 Eh           -9320.76200 eV
Kinetic Energy     :          170.47089657 Eh            4638.74893 eV
Virial Ratio       :            2.00932668


DFT components:
N(Alpha)           :       14.999995677343 electrons
N(Beta)            :       14.999995677343 electrons
N(Total)           :       29.999991354685 electrons
E(X)               :      -23.852845472243 Eh       
E(C)               :       -1.051153453452 Eh       
E(XC)              :      -24.903998925695 Eh       

---------------
SCF CONVERGENCE
---------------

  Last Energy change         ...    4.4372e-07  Tolerance :   1.0000e-06
  Last MAX-Density change    ...    3.2231e-04  Tolerance :   1.0000e-05
  Last RMS-Density change    ...    1.1655e-05  Tolerance :   1.0000e-06
  Last Orbital Gradient      ...    2.6523e-04  Tolerance :   5.0000e-05
  Last Orbital Rotation      ...    2.5337e-04  Tolerance :   5.0000e-05

             **** THE GBW FILE WAS UPDATED (/home/jan/SoftwareDevelopment/karminus/output/bp86_ccpvdz/propionitrile/propionitrile.gbw) ****
             **** DENSITY FILE WAS UPDATED (/home/jan/SoftwareDevelopment/karminus/output/bp86_ccpvdz/propionitrile/propionitrile.scfp.tmp) ****
             **** ENERGY FILE WAS UPDATED (/home/jan/SoftwareDevelopment/karminus/output/bp86_ccpvdz/propionitrile/propionitrile.en.tmp) ****
----------------
ORBITAL ENERGIES
----------------

  NO   OCC          E(Eh)            E(eV) 
   0   2.0000     -14.008006      -381.1772 
   1   2.0000      -9.982397      -271.6348 
   2   2.0000      -9.950505      -270.7670 
   3   2.0000      -9.944797      -270.6117 
   4   2.0000      -0.824495       -22.4357 
   5   2.0000      -0.717135       -19.5142 
   6   2.0000      -0.617542       -16.8042 
   7   2.0000      -0.459035       -12.4910 
   8   2.0000      -0.418926       -11.3996 
   9   2.0000      -0.387986       -10.5576 
  10   2.0000      -0.352887        -9.6026 
  11   2.0000      -0.344859        -9.3841 
  12   2.0000      -0.304012        -8.2726 
  13   2.0000      -0.291364        -7.9284 
  14   2.0000      -0.287367        -7.8197 
  15   0.0000      -0.009087        -0.2473 
  16   0.0000       0.004225         0.1150 
  17   0.0000       0.033027         0.8987 
  18   0.0000       0.063629         1.7314 
  19   0.0000       0.079435         2.1615 
  20   0.0000       0.092783         2.5247 
  21   0.0000       0.124514         3.3882 
  22   0.0000       0.126228         3.4349 
  23   0.0000       0.149228         4.0607 
  24   0.0000       0.247701         6.7403 
  25   0.0000       0.334840         9.1114 
  26   0.0000       0.380900        10.3648 
  27   0.0000       0.420498        11.4423 
  28   0.0000       0.453001        12.3268 
  29   0.0000       0.461477        12.5574 
  30   0.0000       0.487542        13.2667 
  31   0.0000       0.541203        14.7269 
  32   0.0000       0.555983        15.1291 
  33   0.0000       0.570594        15.5266 
  34   0.0000       0.593462        16.1489 
  35   0.0000       0.600432        16.3386 
  36   0.0000       0.605469        16.4756 
  37   0.0000       0.624625        16.9969 
  38   0.0000       0.649253        17.6671 
  39   0.0000       0.743212        20.2238 
  40   0.0000       0.786417        21.3995 
  41   0.0000       0.791165        21.5287 
  42   0.0000       0.858019        23.3479 
  43   0.0000       0.884420        24.0663 
  44   0.0000       0.934635        25.4327 
  45   0.0000       1.028873        27.9971 
  46   0.0000       1.032631        28.0993 
  47   0.0000       1.074149        29.2291 
  48   0.0000       1.084748        29.5175 
  49   0.0000       1.155413        31.4404 
  50   0.0000       1.338310        36.4173 
  51   0.0000       1.356639        36.9160 
  52   0.0000       1.366190        37.1759 
  53   0.0000       1.405879        38.2559 
  54   0.0000       1.447733        39.3948 
  55   0.0000       1.463248        39.8170 
  56   0.0000       1.493576        40.6423 
  57   0.0000       1.553924        42.2844 
  58   0.0000       1.572962        42.8025 
  59   0.0000       1.596168        43.4339 
  60   0.0000       1.615663        43.9644 
  61   0.0000       1.681599        45.7586 
  62   0.0000       1.697262        46.1849 
  63   0.0000       1.711565        46.5740 
  64   0.0000       1.823064        49.6081 
  65   0.0000       1.834411        49.9169 
  66   0.0000       1.875750        51.0418 
  67   0.0000       1.900160        51.7060 
  68   0.0000       2.007771        54.6342 
  69   0.0000       2.019459        54.9523 
  70   0.0000       2.039191        55.4892 
  71   0.0000       2.088208        56.8230 
  72   0.0000       2.266207        61.6666 
  73   0.0000       2.300250        62.5930 
  74   0.0000       2.378412        64.7199 
  75   0.0000       2.407962        65.5240 
  76   0.0000       2.432018        66.1786 
  77   0.0000       2.598382        70.7056 
  78   0.0000       2.602877        70.8279 
  79   0.0000       2.659658        72.3730 
  80   0.0000       2.765896        75.2639 

                    ********************************
                    * MULLIKEN POPULATION ANALYSIS *
                    ********************************

-----------------------
MULLIKEN ATOMIC CHARGES
-----------------------
   0 C :   -0.090966
   1 N :   -0.102989
   2 C :   -0.067613
   3 C :   -0.093232
   4 H :    0.088527
   5 H :    0.087729
   6 H :    0.061767
   7 H :    0.050105
   8 H :    0.066674
Sum of atomic charges:   -0.0000000

--------------------------------
MULLIKEN REDUCED ORBITAL CHARGES
--------------------------------
  0 C s       :     3.121970  s :     3.121970
      pz      :     0.951847  p :     2.894412
      px      :     0.947441
      py      :     0.995124
      dz2     :     0.006847  d :     0.074585
      dxz     :     0.002159
      dyz     :     0.024260
      dx2y2   :     0.018581
      dxy     :     0.022738
  1 N s       :     3.589681  s :     3.589681
      pz      :     1.054586  p :     3.475359
      px      :     1.066523
      py      :     1.354251
      dz2     :     0.003705  d :     0.037949
      dxz     :     0.001062
      dyz     :     0.011209
      dx2y2   :     0.010523
      dxy     :     0.011450
  2 C s       :     3.102926  s :     3.102926
      pz      :     1.011787  p :     2.905874
      px      :     0.974715
      py      :     0.919372
      dz2     :     0.014996  d :     0.058814
      dxz     :     0.006442
      dyz     :     0.007639
      dx2y2   :     0.014103
      dxy     :     0.015634
  3 C s       :     3.110603  s :     3.110603
      pz      :     1.008487  p :     2.946239
      px      :     0.928988
      py      :     1.008763
      dz2     :     0.012229  d :     0.036391
      dxz     :     0.005890
      dyz     :     0.001554
      dx2y2   :     0.008596
      dxy     :     0.008122
  4 H s       :     0.884148  s :     0.884148
      pz      :     0.016274  p :     0.027325
      px      :     0.005657
      py      :     0.005394
  5 H s       :     0.884913  s :     0.884913
      pz      :     0.007398  p :     0.027357
      px      :     0.011739
      py      :     0.008220
  6 H s       :     0.910310  s :     0.910310
      pz      :     0.007094  p :     0.027924
      px      :     0.011581
      py      :     0.009248
  7 H s       :     0.921765  s :     0.921765
      pz      :     0.006639  p :     0.028130
      px      :     0.006020
      py      :     0.015471
  8 H s       :     0.905445  s :     0.905445
      pz      :     0.015687  p :     0.027881
      px      :     0.005205
      py      :     0.006988


                     *******************************
                     * LOEWDIN POPULATION ANALYSIS *
                     *******************************

----------------------
LOEWDIN ATOMIC CHARGES
----------------------
   0 C :   -0.097751
   1 N :   -0.004027
   2 C :   -0.078687
   3 C :   -0.072230
   4 H :    0.063929
   5 H :    0.064061
   6 H :    0.042207
   7 H :    0.039559
   8 H :    0.042940

-------------------------------
LOEWDIN REDUCED ORBITAL CHARGES
-------------------------------
  0 C s       :     2.916262  s :     2.916262
      pz      :     0.918967  p :     2.969783
      px      :     0.929561
      py      :     1.121255
      dz2     :     0.023643  d :     0.211706
      dxz     :     0.005234
      dyz     :     0.058885
      dx2y2   :     0.061904
      dxy     :     0.062039
  1 N s       :     3.367631  s :     3.367631
      pz      :     1.049752  p :     3.562520
      px      :     1.066825
      py      :     1.445944
      dz2     :     0.009404  d :     0.073876
      dxz     :     0.001644
      dyz     :     0.017539
      dx2y2   :     0.024975
      dxy     :     0.020314
  2 C s       :     2.829882  s :     2.829882
      pz      :     1.053463  p :     3.080486
      px      :     1.019806
      py      :     1.007217
      dz2     :     0.045823  d :     0.168319
      dxz     :     0.017979
      dyz     :     0.020634
      dx2y2   :     0.040412
      dxy     :     0.043470
  3 C s       :     2.837776  s :     2.837776
      pz      :     1.060109  p :     3.118249
      px      :     0.988636
      py      :     1.069504
      dz2     :     0.039373  d :     0.116206
      dxz     :     0.017868
      dyz     :     0.005474
      dx2y2   :     0.027419
      dxy     :     0.026072
  4 H s       :     0.858643  s :     0.858643
      pz      :     0.047164  p :     0.077428
      px      :     0.015297
      py      :     0.014966
  5 H s       :     0.858432  s :     0.858432
      pz      :     0.018386  p :     0.077508
      px      :     0.035891
      py      :     0.023230
  6 H s       :     0.879777  s :     0.879777
      pz      :     0.018363  p :     0.078016
      px      :     0.035699
      py      :     0.023953
  7 H s       :     0.882893  s :     0.882893
      pz      :     0.016769  p :     0.077548
      px      :     0.017375
      py      :     0.043403
  8 H s       :     0.878970  s :     0.878970
      pz      :     0.046270  p :     0.078090
      px      :     0.014702
      py      :     0.017118


                      *****************************
                      * MAYER POPULATION ANALYSIS *
                      *****************************

  NA   - Mulliken gross atomic population
  ZA   - Total nuclear charge
  QA   - Mulliken gross atomic charge
  VA   - Mayer's total valence
  BVA  - Mayer's bonded valence
  FA   - Mayer's free valence

  ATOM       NA         ZA         QA         VA         BVA        FA
  0 C      6.0910     6.0000    -0.0910     4.2942     4.2942     0.0000
  1 N      7.1030     7.0000    -0.1030     3.2879     3.2879    -0.0000
  2 C      6.0676     6.0000    -0.0676     3.9952     3.9952    -0.0000
  3 C      6.0932     6.0000    -0.0932     3.9831     3.9831     0.0000
  4 H      0.9115     1.0000     0.0885     0.9653     0.9653     0.0000
  5 H      0.9123     1.0000     0.0877     0.9654     0.9654     0.0000
  6 H      0.9382     1.0000     0.0618     0.9776     0.9776     0.0000
  7 H      0.9499     1.0000     0.0501     0.9800     0.9800    -0.0000
  8 H      0.9333     1.0000     0.0667     0.9770     0.9770    -0.0000

  Mayer bond orders larger than 0.1
B(  0-C ,  1-N ) :   3.2008 B(  0-C ,  2-C ) :   1.0527 B(  2-C ,  3-C ) :   1.0469 
B(  2-C ,  4-H ) :   0.9264 B(  2-C ,  5-H ) :   0.9263 B(  3-C ,  6-H ) :   0.9717 
B(  3-C ,  7-H ) :   0.9687 B(  3-C ,  8-H ) :   0.9718 

-------
TIMINGS
-------

Total SCF time: 0 days 0 hours 0 min 4 sec 

Total time                  ....       4.953 sec
Sum of individual times     ....       4.944 sec  ( 99.8%)

Fock matrix formation       ....       3.822 sec  ( 77.2%)
  Split-RI-J                ....       1.679 sec  ( 43.9% of F)
  XC integration            ....       2.138 sec  ( 55.9% of F)
    Basis function eval.    ....       1.442 sec  ( 67.4% of XC)
    Density eval.           ....       0.188 sec  (  8.8% of XC)
    XC-Functional eval.     ....       0.177 sec  (  8.3% of XC)
    XC-Potential eval.      ....       0.300 sec  ( 14.0% of XC)
Diagonalization             ....       0.008 sec  (  0.2%)
Density matrix formation    ....       0.001 sec  (  0.0%)
Population analysis         ....       0.002 sec  (  0.0%)
Initial guess               ....       0.304 sec  (  6.1%)
Orbital Transformation      ....       0.000 sec  (  0.0%)
Orbital Orthonormalization  ....       0.000 sec  (  0.0%)
DIIS solution               ....       0.002 sec  (  0.0%)
SOSCF solution              ....       0.001 sec  (  0.0%)
Grid generation             ....       0.804 sec  ( 16.2%)

-------------------------   --------------------
FINAL SINGLE POINT ENERGY      -172.060824890186
-------------------------   --------------------


                            ***************************************
                            *     ORCA property calculations      *
                            ***************************************

                                    ---------------------
                                    Active property flags
                                    ---------------------
   (+) Dipole Moment
   (+) Chemical Shifts


------------------------------------------------------------------------------
                       ORCA ELECTRIC PROPERTIES CALCULATION
------------------------------------------------------------------------------

Dipole Moment Calculation                       ... on
Quadrupole Moment Calculation                   ... off
Polarizability Calculation                      ... off
GBWName                                         ... /home/jan/SoftwareDevelopment/karminus/output/bp86_ccpvdz/propionitrile/propionitrile.gbw
Electron density file                           ... /home/jan/SoftwareDevelopment/karminus/output/bp86_ccpvdz/propionitrile/propionitrile.scfp.tmp

-------------
DIPOLE MOMENT
-------------
                                X             Y             Z
Electronic contribution:     -3.10604      -4.72329       0.49991
Nuclear contribution   :      3.56232       6.13868      -0.34079
                        -----------------------------------------
Total Dipole Moment    :      0.45628       1.41539       0.15912
                        -----------------------------------------
Magnitude (a.u.)       :      1.49560
Magnitude (Debye)      :      3.80152

------------------------------------------------------------------------------
                                ORCA EPR/NMR CALCULATION
------------------------------------------------------------------------------

GBWName                      ... /home/jan/SoftwareDevelopment/karminus/output/bp86_ccpvdz/propionitrile/propionitrile.gbw
Electron density file        ... /home/jan/SoftwareDevelopment/karminus/output/bp86_ccpvdz/propionitrile/propionitrile.scfp.tmp
Spin density file            ... /home/jan/SoftwareDevelopment/karminus/output/bp86_ccpvdz/propionitrile/propionitrile.scfr.tmp
Treatment of gauge           ... GIAO (approximations 1/2el = 0,3)
Details of the CP(SCF) procedure:
       Solver   = POPLE   
       MaxIter  =    64   
       Tolerance=    1.000e-06
       Op-0     =   0- 14 =>  15- 80
Multiplicity                 ... 1
g-tensor                     ... 0
NMR chemical shifts          ... 1
Number of nuclei for epr/nmr ... 9
   Nucleus:   0C 
       Hyperfine : Isotope=   13 I=   0.500 P= 134.188
       Quadrupole: Isotope=   13 I=   0.500 Q=   0.000
       Spin-Orbit: Zeff=   3.600
       rho(0)=N f(grad)=N a(iso)=N a(dip)=N a(orb)=N sigma(nmr)=Y
   Nucleus:   1N 
       Hyperfine : Isotope=   14 I=   1.000 P=  38.571
       Quadrupole: Isotope=   14 I=   1.000 Q=   0.020
       Spin-Orbit: Zeff=   4.550
       rho(0)=N f(grad)=N a(iso)=N a(dip)=N a(orb)=N sigma(nmr)=Y
   Nucleus:   2C 
       Hyperfine : Isotope=   13 I=   0.500 P= 134.188
       Quadrupole: Isotope=   13 I=   0.500 Q=   0.000
       Spin-Orbit: Zeff=   3.600
       rho(0)=N f(grad)=N a(iso)=N a(dip)=N a(orb)=N sigma(nmr)=Y
   Nucleus:   3C 
       Hyperfine : Isotope=   13 I=   0.500 P= 134.188
       Quadrupole: Isotope=   13 I=   0.500 Q=   0.000
       Spin-Orbit: Zeff=   3.600
       rho(0)=N f(grad)=N a(iso)=N a(dip)=N a(orb)=N sigma(nmr)=Y
   Nucleus:   4H 
       Hyperfine : Isotope=    1 I=   0.500 P= 533.552
       Quadrupole: Isotope=    2 I=   1.000 Q=   0.003
       Spin-Orbit: Zeff=   1.000
       rho(0)=N f(grad)=N a(iso)=N a(dip)=N a(orb)=N sigma(nmr)=Y
   Nucleus:   5H 
       Hyperfine : Isotope=    1 I=   0.500 P= 533.552
       Quadrupole: Isotope=    2 I=   1.000 Q=   0.003
       Spin-Orbit: Zeff=   1.000
       rho(0)=N f(grad)=N a(iso)=N a(dip)=N a(orb)=N sigma(nmr)=Y
   Nucleus:   6H 
       Hyperfine : Isotope=    1 I=   0.500 P= 533.552
       Quadrupole: Isotope=    2 I=   1.000 Q=   0.003
       Spin-Orbit: Zeff=   1.000
       rho(0)=N f(grad)=N a(iso)=N a(dip)=N a(orb)=N sigma(nmr)=Y
   Nucleus:   7H 
       Hyperfine : Isotope=    1 I=   0.500 P= 533.552
       Quadrupole: Isotope=    2 I=   1.000 Q=   0.003
       Spin-Orbit: Zeff=   1.000
       rho(0)=N f(grad)=N a(iso)=N a(dip)=N a(orb)=N sigma(nmr)=Y
   Nucleus:   8H 
       Hyperfine : Isotope=    1 I=   0.500 P= 533.552
       Quadrupole: Isotope=    2 I=   1.000 Q=   0.003
       Spin-Orbit: Zeff=   1.000
       rho(0)=N f(grad)=N a(iso)=N a(dip)=N a(orb)=N sigma(nmr)=Y
Using LibInt in CPSCF-CP

Forming RHS of the CP-SCF equations         ... 
Calculating right hand sides for GIAO treatment (new)  ... 
  Entering RightHandSide GIAO. ScalHFX=    0.0000 NeedHFX=0
     -> 1-electron GIAO integrals will be done analytically
     -> RI used in SCF and no Fock exchange. RIJK enforced by the user
     Making grid for GIAO integrations   ... done
     Test of existence of the V matrix   = 1
     Test of existence of the VCD matrix = 1
     Test of existence of the VO matrix  = 0
     Warning: RI is turned on for GIAO but the V matrix or its Cholesky decomposition are not found - making it
     Calculating V           ... done
     Cholesky decomposition  ... done
     Storing V and VCD       ... done
     Cholesky decomposition-2... done
     Storing VO              ... done
  Getting the pre-screening matrix        ... done
  Extracting occupied and virtual blocks  ... 
  Operator  0  NO=  15 NV=  66 
  One-electron GIAO integrals             ...   done
  Transforming and RHS contribution       ...   done
  Calculating F[B](P)                     ...  (RI-JK)
---------------------
RI-GIAO-TRANSFORMATION (AUX index driven)
----------------------

Dimension of the orbital-basis         ... 81
Dimension of the aux-basis             ... 251
Number of (i,a) MOs                    ... 15,66
Number of ij,ia,ab pairs               ... 225,990,4356
Transformation of internal MOs         ...    0-  14
Transformation of internal/external MOs...    0-  14 to   15-  80

Mapping shells                                 ... done
Making shell addresses                         ... done
Figuring out significant basis function pairs  ... done
  N(Pairs)         ... 3321
  N(Strong pairs)  ... 3305
  Mem-Available    ... 1024 MB
  (p,q) per batch  ... 66837
  N(Batches)       ... 1
Preparing matrix containers                    ... done
Preparing AO buffer                            ... done
Calculating AO integrals and transforming AUX  ... done
Finished RI-GIAO integral generation and aux-index transformation in  1.063 sec
Mapping the MO pairs                            ... done
Getting memory                                  ... done
Second Phase: sorting and transformation of MO indices
Memory available                       ... 1024 MB 
Max. # Aux fcns treated in a batch     ... 251    
Initializing the MO transformation process      ... done
Batch   0: Q=   0 ...  250
   Reading      ... done
   Transforming ... done
Finished transformation of the MO indices in  0.237 sec
Initializing the sorting process                ... done

IJ-Resorting
# of internal pairs                    ... 225
# batches for internal pairs           ... 1
   (0) Reading      ... done
   (0) Writing      ... done
   (1) Reading      ... done
   (1) Writing      ... done
   (2) Reading      ... done
   (2) Writing      ... done
   (3) Reading      ... done
   (3) Writing      ... done
(ij|v) resorting done in     0.007 sec

IA-Resorting
# of internal orbitals                 ... 15
# batches for internal orbitals        ... 1
   (0) Reading      ... done
   (0) Writing      ... done
   (1) Reading      ... done
   (1) Writing      ... done
   (2) Reading      ... done
   (2) Writing      ... done
   (3) Reading      ... done
   (3) Writing      ... done
(ia|v) resorting done in     0.010 sec

  Resorting completed in     0.018 sec
RI-GIAO-Integral transformation completed in     1.368 sec
Reading RI-integrals ... done
Doing RI-JK          ... done
 => dG/dB done
  RI-JK GIAO contributions                ...   done
  DFT XC-terms                            ... done
  Transforming to MO basis/RHS contribs.  ... done
  GIAO profiling information: 
    Total GIAO time               ...       2.4 sec
       Grid setup                 ...       0.2 sec (  6.4%)
       RI-V-matrix setup          ...       0.0 sec (  1.6%)
       GIAO 1-electron integrals  ...       0.0 sec (  1.1%)
       GIAO RI-JK                 ...       0.4 sec ( 17.1%)
       GIAO RI integral trafo     ...       1.4 sec ( 56.7%)
       GIAO XC-terms              ...       0.4 sec ( 16.9%)

  GIAO right hand side done


Forming final perturbed densities           ... done
Transforming perturbed density to AO basis  ...  done

Magnetic field perturbation calculated in  2.495 sec

---------------
CHEMICAL SHIFTS
---------------

Note: using conversion factor for au to ppm alpha^2/2 =   26.625677252 
Doing GIAO para- and diamagnetic shielding integrals analytically     ...done
Doing remaining GIAO terms numerically                                ...done
 --------------
 Nucleus   0C :
 --------------

Diamagnetic contribution to the shielding tensor (ppm) : 
           260.703          4.616         2.055
            20.063        276.870         6.192
             2.527          4.364       253.871

Paramagnetic contribution to the shielding tensor (ppm): 
          -255.739         71.434         7.060
            56.593        -14.945        34.940
             6.820         37.344      -265.261

Total shielding tensor (ppm): 
             4.964         76.051         9.115
            76.656        261.925        41.133
             9.347         41.707       -11.390


 Diagonalized sT*s matrix:
 
 sDSO           254.702          253.677          283.064  iso=     263.814
 sPSO          -269.233         -272.530            5.818  iso=    -178.648
        ---------------  ---------------  ---------------
 Total          -14.531          -18.853          288.883  iso=      85.166

 --------------
 Nucleus   1N :
 --------------

Diamagnetic contribution to the shielding tensor (ppm) : 
           347.902         -2.298         0.135
             8.016        340.161         0.483
             0.738         -0.274       346.015

Paramagnetic contribution to the shielding tensor (ppm): 
          -462.651        126.812        16.599
           100.943        -74.127        63.790
            10.894         54.634      -486.934

Total shielding tensor (ppm): 
          -114.749        124.514        16.734
           108.959        266.034        64.273
            11.632         54.360      -140.919


 Diagonalized sT*s matrix:
 
 sDSO           346.423          345.679          341.976  iso=     344.693
 sPSO          -490.743         -496.676          -36.294  iso=    -341.238
        ---------------  ---------------  ---------------
 Total         -144.319         -150.996          305.681  iso=       3.455

 --------------
 Nucleus   2C :
 --------------

Diamagnetic contribution to the shielding tensor (ppm) : 
           248.899        -10.676        -1.797
             3.731        230.131         1.130
             1.462          1.528       248.778

Paramagnetic contribution to the shielding tensor (ppm): 
           -74.798         21.295        -5.288
             7.626        -48.658        -0.710
            -8.482         -0.958       -85.745

Total shielding tensor (ppm): 
           174.101         10.618        -7.084
            11.358        181.473         0.421
            -7.020          0.569       163.033


 Diagonalized sT*s matrix:
 
 sDSO           247.742          246.173          233.894  iso=     242.603
 sPSO           -89.626          -75.603          -43.972  iso=     -69.734
        ---------------  ---------------  ---------------
 Total          158.116          170.570          189.921  iso=     172.869

 --------------
 Nucleus   3C :
 --------------

Diamagnetic contribution to the shielding tensor (ppm) : 
           240.758         22.101        -7.524
            -2.608        258.214        -2.642
            17.090        -18.547       271.433

Paramagnetic contribution to the shielding tensor (ppm): 
           -53.982        -11.977        -5.527
            11.366        -87.557        -0.134
           -30.628         14.881      -102.321

Total shielding tensor (ppm): 
           186.776         10.124       -13.051
             8.758        170.657        -2.776
           -13.538         -3.665       169.112


 Diagonalized sT*s matrix:
 
 sDSO           268.011          248.528          253.866  iso=     256.801
 sPSO          -106.459          -81.055          -56.345  iso=     -81.286
        ---------------  ---------------  ---------------
 Total          161.552          167.472          197.521  iso=     175.515

 --------------
 Nucleus   4H :
 --------------

Diamagnetic contribution to the shielding tensor (ppm) : 
            25.538         -0.080        -0.649
             3.180         24.473         2.935
           -34.111         18.568        35.471

Paramagnetic contribution to the shielding tensor (ppm): 
             0.184          1.155        -0.729
            -2.036          3.041        -0.242
            32.645        -17.448        -2.098

Total shielding tensor (ppm): 
            25.722          1.075        -1.378
             1.144         27.514         2.693
            -1.467          1.119        33.373


 Diagonalized sT*s matrix:
 
 sDSO            15.140           26.431           43.911  iso=      28.494
 sPSO             9.521            1.442           -9.837  iso=       0.375
        ---------------  ---------------  ---------------
 Total           24.661           27.873           34.074  iso=      28.869

 --------------
 Nucleus   5H :
 --------------

Diamagnetic contribution to the shielding tensor (ppm) : 
            28.003        -18.533         4.947
           -11.960         16.590         0.529
            13.418         -0.884       -12.823

Paramagnetic contribution to the shielding tensor (ppm): 
             3.883         16.313        -4.289
             8.400         13.421        -1.520
           -13.033          0.655        37.576

Total shielding tensor (ppm): 
            31.886         -2.219         0.658
            -3.560         30.010        -0.991
             0.385         -0.228        24.753


 Diagonalized sT*s matrix:
 
 sDSO           -13.075            5.336           39.509  iso=      10.590
 sPSO            37.752           22.586           -5.458  iso=      18.293
        ---------------  ---------------  ---------------
 Total           24.677           27.921           34.050  iso=      28.883

 --------------
 Nucleus   6H :
 --------------

Diamagnetic contribution to the shielding tensor (ppm) : 
            37.677          8.445         0.299
            -2.099         39.676        -2.139
             6.803         -3.816        55.297

Paramagnetic contribution to the shielding tensor (ppm): 
            -2.920        -11.138         0.635
             0.783        -11.768         1.009
            -6.528          3.170       -28.392

Total shielding tensor (ppm): 
            34.757         -2.692         0.934
            -1.317         27.908        -1.131
             0.275         -0.646        26.905


 Diagonalized sT*s matrix:
 
 sDSO            48.120           47.340           37.190  iso=      44.217
 sPSO           -21.770          -19.498           -1.812  iso=     -14.360
        ---------------  ---------------  ---------------
 Total           26.349           27.842           35.378  iso=      29.857

 --------------
 Nucleus   7H :
 --------------

Diamagnetic contribution to the shielding tensor (ppm) : 
            16.627         12.741        -3.387
            -5.467         43.949        -2.803
             2.268         -1.854        23.405

Paramagnetic contribution to the shielding tensor (ppm): 
            12.558         -8.505         2.831
             9.246         -9.656         2.825
            -2.932          1.595         3.272

Total shielding tensor (ppm): 
            29.185          4.236        -0.556
             3.779         34.294         0.022
            -0.664         -0.259        26.676


 Diagonalized sT*s matrix:
 
 sDSO            22.349           20.754           40.879  iso=      27.994
 sPSO             3.970            6.575           -4.371  iso=       2.058
        ---------------  ---------------  ---------------
 Total           26.319           27.329           36.508  iso=      30.052

 --------------
 Nucleus   8H :
 --------------

Diamagnetic contribution to the shielding tensor (ppm) : 
            23.822          2.870        -3.343
             0.547         24.270        -0.332
            21.272        -17.105        51.365

Paramagnetic contribution to the shielding tensor (ppm): 
             4.217         -2.374         0.640
             0.545          2.524        -0.351
           -22.729         17.209       -16.626

Total shielding tensor (ppm): 
            28.039          0.497        -2.703
             1.092         26.794        -0.683
            -1.458          0.104        34.739


 Diagonalized sT*s matrix:
 
 sDSO            25.326           28.590           45.540  iso=      33.152
 sPSO             1.016           -0.721          -10.180  iso=      -3.295
        ---------------  ---------------  ---------------
 Total           26.342           27.870           35.360  iso=      29.857



--------------------------
CHEMICAL SHIELDING SUMMARY (ppm)
--------------------------


  Nucleus  Element    Isotropic     Anisotropy
  -------  -------  ------------   ------------
      0       C           85.166        305.575 
      1       N            3.455        453.339 
      2       C          172.869         25.578 
      3       C          175.515         33.008 
      4       H           28.869          7.806 
      5       H           28.883          7.751 
      6       H           29.857          8.283 
      7       H           30.052          9.684 
      8       H           29.857          8.254 



Timings for individual modules:

Sum of individual times         ...       12.862 sec (=   0.214 min)
GTO integral calculation        ...        0.176 sec (=   0.003 min)   1.4 %
SCF iterations                  ...        4.966 sec (=   0.083 min)  38.6 %
SCF-level EPR/NMR calculation   ...        7.721 sec (=   0.129 min)  60.0 %
                             ****ORCA TERMINATED NORMALLY****
TOTAL RUN TIME: 0 days 0 hours 0 minutes 12 seconds 952 msec
