15
	Energy:      70.0782049
C         -3.57226        1.78397        0.49581
C         -4.28109        2.54652        1.59697
C         -3.47332        3.28501        0.58213
C         -5.54946        3.05526        0.96911
H         -4.00023        2.58765        2.63051
C         -5.50867        2.56066       -0.46273
C         -4.75479        3.79901       -0.05221
H         -2.62415        3.85851        0.89604
C         -4.56085        1.37982       -0.58443
H         -2.73472        1.14190        0.69349
H         -5.05733        0.43522       -0.34684
H         -4.09001        1.33714       -1.57018
H         -6.36814        2.59926       -1.10509
H         -6.37247        3.53915        1.45623
H         -5.00745        4.81444       -0.28371


