
                                 *****************
                                 * O   R   C   A *
                                 *****************

           --- An Ab Initio, DFT and Semiempirical electronic structure package ---

                  #######################################################
                  #                        -***-                        #
                  #  Department of molecular theory and spectroscopy    #
                  #              Directorship: Frank Neese              #
                  # Max Planck Institute for Chemical Energy Conversion #
                  #                  D-45470 Muelheim/Ruhr              #
                  #                       Germany                       #
                  #                                                     #
                  #                  All rights reserved                #
                  #                        -***-                        #
                  #######################################################


                         Program Version 4.0.0.2 - RELEASE -


 With contributions from (in alphabetic order):
   Daniel Aravena         : Magnetic Properties
   Michael Atanasov       : Ab Initio Ligand Field Theory
   Ute Becker             : Parallelization
   Martin Brehm           : Molecular dynamics
   Dmytro Bykov           : SCF Hessian
   Vijay G. Chilkuri      : MRCI spin determinant printing
   Dipayan Datta          : RHF DLPNO-CCSD density
   Achintya Kumar Dutta   : EOM-CC, STEOM-CC
   Dmitry Ganyushin       : Spin-Orbit,Spin-Spin,Magnetic field MRCI
   Yang Guo               : DLPNO-NEVPT2, CIM, IAO-localization
   Andreas Hansen         : Spin unrestricted coupled pair/coupled cluster methods
   Lee Huntington         : MR-EOM, pCC
   Robert Izsak           : Overlap fitted RIJCOSX, COSX-SCS-MP3, EOM
   Christian Kollmar      : KDIIS, OOCD, Brueckner-CCSD(T), CCSD density
   Simone Kossmann        : Meta GGA functionals, TD-DFT gradient, OOMP2, MP2 Hessian
   Martin Krupicka        : AUTO-CI
   Dagmar Lenk            : GEPOL surface
   Dimitrios Liakos       : Extrapolation schemes; parallel MDCI
   Dimitrios Manganas     : ROCIS; embedding schemes
   Dimitrios Pantazis     : SARC Basis sets
   Taras Petrenko         : DFT Hessian,TD-DFT gradient, ASA, ECA, R-Raman, ABS, FL, XAS/XES, NRVS
   Peter Pinski           : DLPNO-MP2
   Christoph Reimann      : Effective Core Potentials
   Marius Retegan         : Local ZFS, SOC
   Christoph Riplinger    : Optimizer, TS searches, QM/MM, DLPNO-CCSD(T), (RO)-DLPNO pert. Triples
   Tobias Risthaus        : Range-separated hybrids, TD-DFT gradient, RPA, STAB
   Michael Roemelt        : Restricted open shell CIS
   Masaaki Saitow         : Open-shell DLPNO
   Barbara Sandhoefer     : DKH picture change effects
   Kantharuban Sivalingam : CASSCF convergence, NEVPT2, FIC-MRCI
   Georgi Stoychev        : AutoAux
   Boris Wezisla          : Elementary symmetry handling
   Frank Wennmohs         : Technical directorship


 We gratefully acknowledge several colleagues who have allowed us to
 interface, adapt or use parts of their codes:
   Stefan Grimme, W. Hujo, H. Kruse,             : VdW corrections, initial TS optimization,
                  C. Bannwarth                     DFT functionals, gCP, sTDA/sTD-DF
   Ed Valeev                                     : LibInt (2-el integral package), F12 methods
   Garnet Chan, S. Sharma, J. Yang, R. Olivares  : DMRG
   Ulf Ekstrom                                   : XCFun DFT Library
   Mihaly Kallay                                 : mrcc  (arbitrary order and MRCC methods)
   Jiri Pittner, Ondrej Demel                    : Mk-CCSD
   Frank Weinhold                                : gennbo (NPA and NBO analysis)
   Christopher J. Cramer and Donald G. Truhlar   : smd solvation model


 Your calculation uses the libint2 library for the computation of 2-el integrals
 For citations please refer to: http://libint.valeyev.net

 This ORCA versions uses:
   CBLAS   interface :  Fast vector & matrix operations
   LAPACKE interface :  Fast linear algebra routines
   SCALAPACK package :  Parallel linear algebra routines




*****************************************
The coordinations will be read from file: guess.xyz
*****************************************



Information: The global flag for chemical shieldings has been found
             ==>> will calculate the chemical shifts for all atoms in the system

Your calculation utilizes the basis: aug-cc-pVDZ 
    H, B-Ne : Obtained from the ccRepo (grant-hill.group.shef.ac.uk/ccrepo) Feb. 2017
              R. A. Kendall, T. H. Dunning, Jr., R. J. Harrison, J. Chem. Phys. 96, 6796 (1992)
         He : Obtained from the ccRepo (grant-hill.group.shef.ac.uk/ccrepo) Feb. 2017
              D. E. Woon, T. H. Dunning, Jr., J. Chem. Phys. 100, 2975 (1994)
  Li-Be, Na : Obtained from the ccRepo (grant-hill.group.shef.ac.uk/ccrepo) Feb. 2017
              B. P. Prascher, D. E. Woon, K. A. Peterson, T. H. Dunning, Jr., A. K. Wilson, Theor. Chem. Acc. 128, 69 (2011)
         Mg : Obtained from the Peterson Research Group Website (tyr0.chem.wsu.edu/~kipeters) Feb. 2017
              B. P. Prascher, D. E. Woon, K. A. Peterson, T. H. Dunning, Jr., A. K. Wilson, Theor. Chem. Acc. 128, 69 (2011)
      Al-Ar : Obtained from the ccRepo (grant-hill.group.shef.ac.uk/ccrepo) Feb. 2017
              D. E. Woon, T. H. Dunning, Jr., J. Chem. Phys. 98, 1358 (1993)
      Sc-Zn : Obtained from the ccRepo (grant-hill.group.shef.ac.uk/ccrepo) Feb. 2017
              N. B. Balabanov, K. A. Peterson, J. Chem. Phys. 123, 064107 (2005)
              N. B. Balabanov, K. A. Peterson, J. Chem. Phys. 125, 074110 (2006)
      Ga-Kr : Obtained from the ccRepo (grant-hill.group.shef.ac.uk/ccrepo) Feb. 2017
              A. K. Wilson, D. E. Woon, K. A. Peterson, T. H. Dunning, Jr., J. Chem. Phys. 110, 7667 (1999)

================================================================================
                                        WARNINGS
                       Please study these warnings very carefully!
================================================================================

Warning: TCutStore was < 0. Adjusted to Thresh (uncritical)

INFO   : the flag for use of LIBINT has been found!

CheckInput: checking for shifts: .

Warning: GIAO NMR calculation needs an auxiliary basis but have none
           ===>>> Using AutoAux, but it is safer for you to specify one in the input
           ===>>> Done building the auxiliary basis
           ===>>> Writing GBW file done
================================================================================
                                       INPUT FILE
================================================================================
NAME = /home/jan/SoftwareDevelopment/ORCAunleashed/output/tetracyclo_compound/tetracyclo_compound.in
|  1> !aug-cc-pVDZ B3LYP NMR
|  2> 
|  3> *xyzfile 0 1 guess.xyz
|  4> 
|  5> 
|  6>                          ****END OF INPUT****
================================================================================

                       ****************************
                       * Single Point Calculation *
                       ****************************

---------------------------------
CARTESIAN COORDINATES (ANGSTROEM)
---------------------------------
  C     -3.572260    1.783970    0.495810
  C     -4.281090    2.546520    1.596970
  C     -3.473320    3.285010    0.582130
  C     -5.549460    3.055260    0.969110
  H     -4.000230    2.587650    2.630510
  C     -5.508670    2.560660   -0.462730
  C     -4.754790    3.799010   -0.052210
  H     -2.624150    3.858510    0.896040
  C     -4.560850    1.379820   -0.584430
  H     -2.734720    1.141900    0.693490
  H     -5.057330    0.435220   -0.346840
  H     -4.090010    1.337140   -1.570180
  H     -6.368140    2.599260   -1.105090
  H     -6.372470    3.539150    1.456230
  H     -5.007450    4.814440   -0.283710

----------------------------
CARTESIAN COORDINATES (A.U.)
----------------------------
  NO LB      ZA    FRAG     MASS         X           Y           Z
   0 C     6.0000    0    12.011   -6.750593    3.371215    0.936945
   1 C     6.0000    0    12.011   -8.090088    4.812225    3.017836
   2 C     6.0000    0    12.011   -6.563624    6.207769    1.100066
   3 C     6.0000    0    12.011  -10.486960    5.773605    1.831352
   4 H     1.0000    0     1.008   -7.559339    4.889950    4.970943
   5 C     6.0000    0    12.011  -10.409878    4.838946   -0.874433
   6 C     6.0000    0    12.011   -8.985251    7.179088   -0.098663
   7 H     1.0000    0     1.008   -4.958925    7.291527    1.693270
   8 C     6.0000    0    12.011   -8.618757    2.607482   -1.104413
   9 H     1.0000    0     1.008   -5.167872    2.157878    1.310506
  10 H     1.0000    0     1.008   -9.556969    0.822447   -0.655433
  11 H     1.0000    0     1.008   -7.728999    2.526828   -2.967210
  12 H     1.0000    0     1.008  -12.034041    4.911890   -2.088317
  13 H     1.0000    0     1.008  -12.042223    6.688024    2.751876
  14 H     1.0000    0     1.008   -9.462709    9.097973   -0.536134

--------------------------------
INTERNAL COORDINATES (ANGSTROEM)
--------------------------------
 C      0   0   0     0.000000000000     0.00000000     0.00000000
 C      1   0   0     1.515412754665     0.00000000     0.00000000
 C      2   1   0     1.492568282726    60.11667531     0.00000000
 C      2   1   3     1.503923875766   105.14992954    81.40944811
 H      2   1   3     1.071811059889   126.68637215   253.52492103
 C      4   2   1     1.515407130015   105.15028325     0.00000000
 C      4   2   1     1.492567926025    90.29827832   300.98205309
 H      3   2   1     1.071695585043   119.63257790   241.65303151
 C      6   4   2     1.519064431813   110.25525644    20.85685654
 H      1   2   3     1.073687346903   122.14070135   111.07193821
 H      9   6   4     1.093256858428   111.76998974    85.78989860
 H      9   6   4     1.093258867103   111.79604813   210.86488223
 H      6   4   2     1.073687575834   122.14085861   167.51876731
 H      4   2   1     1.071811964199   127.63162830   172.01546305
 H      7   4   2     1.071693711141   119.63225856   225.71021766

---------------------------
INTERNAL COORDINATES (A.U.)
---------------------------
 C      0   0   0     0.000000000000     0.00000000     0.00000000
 C      1   0   0     2.863715086167     0.00000000     0.00000000
 C      2   1   0     2.820545290530    60.11667531     0.00000000
 C      2   1   3     2.842004251464   105.14992954    81.40944811
 H      2   1   3     2.025429370498   126.68637215   253.52492103
 C      4   2   1     2.863704457120   105.15028325     0.00000000
 C      4   2   1     2.820544616463    90.29827832   300.98205309
 H      3   2   1     2.025211154663   119.63257790   241.65303151
 C      6   4   2     2.870615755908   110.25525644    20.85685654
 H      1   2   3     2.028975039104   122.14070135   111.07193821
 H      9   6   4     2.065956056460   111.76998974    85.78989860
 H      9   6   4     2.065959852306   111.79604813   210.86488223
 H      6   4   2     2.028975471720   122.14085861   167.51876731
 H      4   2   1     2.025431079396   127.63162830   172.01546305
 H      7   4   2     2.025207613503   119.63225856   225.71021766

---------------------
BASIS SET INFORMATION
---------------------
There are 2 groups of distinct atoms

 Group   1 Type C   : 18s5p2d contracted to 4s3p2d pattern {8811/311/11}
 Group   2 Type H   : 5s2p contracted to 3s2p pattern {311/11}

Atom   0C    basis set group =>   1
Atom   1C    basis set group =>   1
Atom   2C    basis set group =>   1
Atom   3C    basis set group =>   1
Atom   4H    basis set group =>   2
Atom   5C    basis set group =>   1
Atom   6C    basis set group =>   1
Atom   7H    basis set group =>   2
Atom   8C    basis set group =>   1
Atom   9H    basis set group =>   2
Atom  10H    basis set group =>   2
Atom  11H    basis set group =>   2
Atom  12H    basis set group =>   2
Atom  13H    basis set group =>   2
Atom  14H    basis set group =>   2

INFORMATION: There is an auxiliary basis set but the global RI flag is NOT set

-------------------------------
AUXILIARY BASIS SET INFORMATION
-------------------------------
There are 2 groups of distinct atoms

 Group   1 Type C   : 18s15p14d5f contracted to 18s15p14d5f pattern {111111111111111111/111111111111111/11111111111111/11111}
 Group   2 Type H   : 12s5p4d contracted to 12s5p4d pattern {111111111111/11111/1111}

Atom   0C    basis set group =>   1
Atom   1C    basis set group =>   1
Atom   2C    basis set group =>   1
Atom   3C    basis set group =>   1
Atom   4H    basis set group =>   2
Atom   5C    basis set group =>   1
Atom   6C    basis set group =>   1
Atom   7H    basis set group =>   2
Atom   8C    basis set group =>   1
Atom   9H    basis set group =>   2
Atom  10H    basis set group =>   2
Atom  11H    basis set group =>   2
Atom  12H    basis set group =>   2
Atom  13H    basis set group =>   2
Atom  14H    basis set group =>   2

Checking for AutoStart:
The File: /home/jan/SoftwareDevelopment/ORCAunleashed/output/tetracyclo_compound/tetracyclo_compound.gbw exists
Trying to determine its content:
     ... Fine, the file contains calculation information
     ... Fine, the calculation information was read
     ... Fine, the file contains a basis set
     ... Fine, the basis set was read
     ... Fine, the file contains a geometry
     ... Fine, the geometry was read
     ... The file does not contain orbitals - skipping AutoStart
------------------------------------------------------------------------------
                           ORCA GTO INTEGRAL CALCULATION
------------------------------------------------------------------------------

                         BASIS SET STATISTICS AND STARTUP INFO

 # of primitive gaussian shells          ...  231
 # of primitive gaussian functions       ...  389
 # of contracted shells                  ...  103
 # of contracted basis functions         ...  233
 Highest angular momentum                ...    2
 Maximum contraction depth               ...    8
 Integral package used                   ... LIBINT
 Integral threshhold            Thresh   ...  1.000e-10
 Primitive cut-off              TCut     ...  1.000e-11


------------------------------ INTEGRAL EVALUATION ----------------------------


 * One electron integrals 
 Pre-screening matrix                    ... done
 Shell pair data                         ... done (   0.004 sec)

-------------------------------------------------------------------------------
                                 ORCA SCF
-------------------------------------------------------------------------------

------------
SCF SETTINGS
------------
Hamiltonian:
 Density Functional     Method          .... DFT(GTOs)
 Exchange Functional    Exchange        .... B88
   X-Alpha parameter    XAlpha          ....  0.666667
   Becke's b parameter  XBeta           ....  0.004200
 Correlation Functional Correlation     .... LYP
 LDA part of GGA corr.  LDAOpt          .... VWN-5
 Gradients option       PostSCFGGA      .... off
 Hybrid DFT is turned on
   Fraction HF Exchange ScalHFX         ....  0.200000
   Scaling of DF-GGA-X  ScalDFX         ....  0.720000
   Scaling of DF-GGA-C  ScalDFC         ....  0.810000
   Scaling of DF-LDA-C  ScalLDAC        ....  1.000000
   Perturbative correction              ....  0.000000
   NL short-range parameter             ....  4.800000


General Settings:
 Integral files         IntName         .... /home/jan/SoftwareDevelopment/ORCAunleashed/output/tetracyclo_compound/tetracyclo_compound
 Hartree-Fock type      HFTyp           .... RHF
 Total Charge           Charge          ....    0
 Multiplicity           Mult            ....    1
 Number of Electrons    NEL             ....   50
 Basis Dimension        Dim             ....  233
 Nuclear Repulsion      ENuc            ....    299.0974512837 Eh

Convergence Acceleration:
 DIIS                   CNVDIIS         .... on
   Start iteration      DIISMaxIt       ....    12
   Startup error        DIISStart       ....  0.200000
   # of expansion vecs  DIISMaxEq       ....     5
   Bias factor          DIISBfac        ....   1.050
   Max. coefficient     DIISMaxC        ....  10.000
 Newton-Raphson         CNVNR           .... off
 SOSCF                  CNVSOSCF        .... on
   Start iteration      SOSCFMaxIt      ....   150
   Startup grad/error   SOSCFStart      ....  0.003300
 Level Shifting         CNVShift        .... on
   Level shift para.    LevelShift      ....    0.2500
   Turn off err/grad.   ShiftErr        ....    0.0010
 Zerner damping         CNVZerner       .... off
 Static damping         CNVDamp         .... on
   Fraction old density DampFac         ....    0.7000
   Max. Damping (<1)    DampMax         ....    0.9800
   Min. Damping (>=0)   DampMin         ....    0.0000
   Turn off err/grad.   DampErr         ....    0.1000
 Fernandez-Rico         CNVRico         .... off

SCF Procedure:
 Maximum # iterations   MaxIter         ....   125
 SCF integral mode      SCFMode         .... Direct
   Integral package                     .... LIBINT
 Reset frequeny         DirectResetFreq ....    20
 Integral Threshold     Thresh          ....  1.000e-10 Eh
 Primitive CutOff       TCut            ....  1.000e-11 Eh

Convergence Tolerance:
 Convergence Check Mode ConvCheckMode   .... Total+1el-Energy
 Convergence forced     ConvForced      .... 0
 Energy Change          TolE            ....  1.000e-06 Eh
 1-El. energy change                    ....  1.000e-03 Eh
 Orbital Gradient       TolG            ....  5.000e-05
 Orbital Rotation angle TolX            ....  5.000e-05
 DIIS Error             TolErr          ....  1.000e-06


Diagonalization of the overlap matrix:
Smallest eigenvalue                        ... 6.751e-04
Time for diagonalization                   ...    0.007 sec
Threshold for overlap eigenvalues          ... 1.000e-08
Number of eigenvalues below threshold      ... 0
Time for construction of square roots      ...    0.002 sec
Total time needed                          ...    0.009 sec

-------------------
DFT GRID GENERATION
-------------------

General Integration Accuracy     IntAcc      ...  4.340
Radial Grid Type                 RadialGrid  ... Gauss-Chebyshev
Angular Grid (max. acc.)         AngularGrid ... Lebedev-110
Angular grid pruning method      GridPruning ... 3 (G Style)
Weight generation scheme         WeightScheme... Becke
Basis function cutoff            BFCut       ...    1.0000e-10
Integration weight cutoff        WCut        ...    1.0000e-14
Grids for H and He will be reduced by one unit

# of grid points (after initial pruning)     ...  17944 (   0.0 sec)
# of grid points (after weights+screening)   ...  16464 (   0.0 sec)
nearest neighbour list constructed           ...    0.0 sec
Grid point re-assignment to atoms done       ...    0.0 sec
Grid point division into batches done        ...    0.0 sec
Reduced shell lists constructed in    0.4 sec

Total number of grid points                  ...    16464
Total number of batches                      ...      264
Average number of points per batch           ...       62
Average number of grid points per atom       ...     1098
Average number of shells per batch           ...    94.98 (92.22%)
Average number of basis functions per batch  ...   214.97 (92.26%)
Average number of large shells per batch     ...    81.96 (86.29%)
Average number of large basis fcns per batch ...   188.01 (87.46%)
Maximum spatial batch extension              ...  25.60, 20.89, 21.40 au
Average spatial batch extension              ...   4.03,  3.94,  4.06 au

Time for grid setup =    0.482 sec

------------------------------
INITIAL GUESS: MODEL POTENTIAL
------------------------------
Loading Hartree-Fock densities                     ... done
Calculating cut-offs                               ... done
Setting up the integral package                    ... done
Initializing the effective Hamiltonian             ... done
Starting the Coulomb interaction                   ... done (   0.5 sec)
Reading the grid                                   ... done
Mapping shells                                     ... done
Starting the XC term evaluation                    ... done (   0.8 sec)
  promolecular density results
     # of electrons  =     49.991252068
     EX              =    -38.485091936
     EC              =     -1.657748418
     EX+EC           =    -40.142840353
Transforming the Hamiltonian                       ... done (   0.0 sec)
Diagonalizing the Hamiltonian                      ... done (   0.0 sec)
Back transforming the eigenvectors                 ... done (   0.0 sec)
Now organizing SCF variables                       ... done
                      ------------------
                      INITIAL GUESS DONE (   1.9 sec)
                      ------------------
--------------
SCF ITERATIONS
--------------
ITER       Energy         Delta-E        Max-DP      RMS-DP      [F,P]     Damp
               ***  Starting incremental Fock matrix formation  ***
  0   -271.0895739030   0.000000000000 0.24314189  0.00528368 12.1148758 0.7000
  1   -271.1770484584  -0.087474555390 0.16337402  0.00345317  6.3151029 0.7000
  2   -271.2101116826  -0.033063224203 0.07553280  0.00166917  2.5090830 0.7000
  3   -271.2288826760  -0.018770993430 0.04160901  0.00080647  1.1057026 0.7000
                      *** Initiating the SOSCF procedure ***
                      *** Re-Reading the Fockian *** 
                      *** Removing any level shift *** 
ITER      Energy       Delta-E        Grad      Rot      Max-DP    RMS-DP
  4   -271.24259989  -0.0137172172  0.002545  0.002545  0.103848  0.001606
               *** Restarting incremental Fock matrix formation ***
  5   -271.27464464  -0.0320447498  0.001876  0.002053  0.018284  0.000284
  6   -271.27472648  -0.0000818397  0.001382  0.001215  0.009142  0.000185
  7   -271.27484662  -0.0001201329  0.000508  0.000685  0.005411  0.000128
  8   -271.27485421  -0.0000075905  0.000264  0.000273  0.002488  0.000050
  9   -271.27485941  -0.0000051989  0.000034  0.000062  0.000788  0.000011
                 **** Energy Check signals convergence ****
              ***Rediagonalizing the Fockian in SOSCF/NRSCF***

               *****************************************************
               *                     SUCCESS                       *
               *           SCF CONVERGED AFTER  10 CYCLES          *
               *****************************************************

Setting up the final grid:

General Integration Accuracy     IntAcc      ...  4.670
Radial Grid Type                 RadialGrid  ... Gauss-Chebyshev
Angular Grid (max. acc.)         AngularGrid ... Lebedev-302
Angular grid pruning method      GridPruning ... 3 (G Style)
Weight generation scheme         WeightScheme... Becke
Basis function cutoff            BFCut       ...    1.0000e-10
Integration weight cutoff        WCut        ...    1.0000e-14
Grids for H and He will be reduced by one unit

# of grid points (after initial pruning)     ...  70636 (   0.0 sec)
# of grid points (after weights+screening)   ...  63763 (   0.1 sec)
nearest neighbour list constructed           ...    0.0 sec
Grid point re-assignment to atoms done       ...    0.0 sec
Grid point division into batches done        ...    0.2 sec
Reduced shell lists constructed in    1.8 sec

Total number of grid points                  ...    63763
Total number of batches                      ...     1004
Average number of points per batch           ...       63
Average number of grid points per atom       ...     4251
Average number of shells per batch           ...    90.85 (88.21%)
Average number of basis functions per batch  ...   205.34 (88.13%)
Average number of large shells per batch     ...    76.91 (84.65%)
Average number of large basis fcns per batch ...   176.23 (85.82%)
Maximum spatial batch extension              ...  17.08, 19.72, 18.70 au
Average spatial batch extension              ...   2.54,  2.50,  2.56 au

Final grid set up in    2.0 sec
Final integration                            ... done (   3.2 sec)
Change in XC energy                          ...    -0.000014317
Integrated number of electrons               ...    49.999987626
Previous integrated no of electrons          ...    50.000640121

----------------
TOTAL SCF ENERGY
----------------

Total Energy       :         -271.27487370 Eh           -7381.76460 eV

Components:
Nuclear Repulsion  :          299.09745128 Eh            8138.85542 eV
Electronic Energy  :         -570.37232498 Eh          -15520.62002 eV
One Electron Energy:         -956.94635118 Eh          -26039.83406 eV
Two Electron Energy:          386.57402619 Eh           10519.21404 eV

Virial components:
Potential Energy   :         -541.39386229 Eh          -14732.07596 eV
Kinetic Energy     :          270.11898859 Eh            7350.31136 eV
Virial Ratio       :            2.00427917


DFT components:
N(Alpha)           :       24.999993813137 electrons
N(Beta)            :       24.999993813137 electrons
N(Total)           :       49.999987626274 electrons
E(X)               :      -31.134243879572 Eh       
E(C)               :       -1.958472478766 Eh       
E(XC)              :      -33.092716358338 Eh       

---------------
SCF CONVERGENCE
---------------

  Last Energy change         ...    2.1961e-08  Tolerance :   1.0000e-06
  Last MAX-Density change    ...    4.7156e-04  Tolerance :   1.0000e-05
  Last RMS-Density change    ...    6.0423e-06  Tolerance :   1.0000e-06
  Last Orbital Gradient      ...    4.4370e-05  Tolerance :   5.0000e-05
  Last Orbital Rotation      ...    3.9427e-05  Tolerance :   5.0000e-05

             **** THE GBW FILE WAS UPDATED (/home/jan/SoftwareDevelopment/ORCAunleashed/output/tetracyclo_compound/tetracyclo_compound.gbw) ****
             **** DENSITY FILE WAS UPDATED (/home/jan/SoftwareDevelopment/ORCAunleashed/output/tetracyclo_compound/tetracyclo_compound.scfp.tmp) ****
             **** ENERGY FILE WAS UPDATED (/home/jan/SoftwareDevelopment/ORCAunleashed/output/tetracyclo_compound/tetracyclo_compound.en.tmp) ****
----------------
ORBITAL ENERGIES
----------------

  NO   OCC          E(Eh)            E(eV) 
   0   2.0000     -10.187059      -277.2040 
   1   2.0000     -10.187040      -277.2035 
   2   2.0000     -10.177190      -276.9354 
   3   2.0000     -10.176501      -276.9167 
   4   2.0000     -10.176264      -276.9102 
   5   2.0000     -10.175840      -276.8987 
   6   2.0000     -10.175618      -276.8927 
   7   2.0000      -0.954607       -25.9762 
   8   2.0000      -0.786752       -21.4086 
   9   2.0000      -0.738690       -20.1008 
  10   2.0000      -0.632196       -17.2029 
  11   2.0000      -0.570202       -15.5160 
  12   2.0000      -0.561023       -15.2662 
  13   2.0000      -0.541504       -14.7351 
  14   2.0000      -0.506254       -13.7759 
  15   2.0000      -0.441474       -12.0131 
  16   2.0000      -0.436283       -11.8719 
  17   2.0000      -0.421893       -11.4803 
  18   2.0000      -0.404579       -11.0092 
  19   2.0000      -0.351417        -9.5625 
  20   2.0000      -0.344333        -9.3698 
  21   2.0000      -0.318983        -8.6800 
  22   2.0000      -0.280200        -7.6246 
  23   2.0000      -0.275286        -7.4909 
  24   2.0000      -0.209540        -5.7019 
  25   0.0000      -0.005222        -0.1421 
  26   0.0000       0.010126         0.2756 
  27   0.0000       0.011376         0.3096 
  28   0.0000       0.013209         0.3594 
  29   0.0000       0.029298         0.7972 
  30   0.0000       0.034193         0.9304 
  31   0.0000       0.036824         1.0020 
  32   0.0000       0.037115         1.0100 
  33   0.0000       0.060545         1.6475 
  34   0.0000       0.071053         1.9334 
  35   0.0000       0.081312         2.2126 
  36   0.0000       0.083747         2.2789 
  37   0.0000       0.085464         2.3256 
  38   0.0000       0.090518         2.4631 
  39   0.0000       0.094276         2.5654 
  40   0.0000       0.100065         2.7229 
  41   0.0000       0.103750         2.8232 
  42   0.0000       0.106734         2.9044 
  43   0.0000       0.107811         2.9337 
  44   0.0000       0.109024         2.9667 
  45   0.0000       0.117832         3.2064 
  46   0.0000       0.123281         3.3547 
  47   0.0000       0.124627         3.3913 
  48   0.0000       0.129158         3.5146 
  49   0.0000       0.130044         3.5387 
  50   0.0000       0.138271         3.7625 
  51   0.0000       0.139912         3.8072 
  52   0.0000       0.145772         3.9667 
  53   0.0000       0.161399         4.3919 
  54   0.0000       0.163320         4.4442 
  55   0.0000       0.179746         4.8911 
  56   0.0000       0.184538         5.0215 
  57   0.0000       0.187288         5.0964 
  58   0.0000       0.199907         5.4397 
  59   0.0000       0.203605         5.5404 
  60   0.0000       0.204913         5.5760 
  61   0.0000       0.218046         5.9333 
  62   0.0000       0.227639         6.1944 
  63   0.0000       0.234815         6.3897 
  64   0.0000       0.252392         6.8679 
  65   0.0000       0.256919         6.9911 
  66   0.0000       0.258080         7.0227 
  67   0.0000       0.279293         7.6000 
  68   0.0000       0.282903         7.6982 
  69   0.0000       0.285933         7.7806 
  70   0.0000       0.292990         7.9727 
  71   0.0000       0.309928         8.4336 
  72   0.0000       0.312437         8.5018 
  73   0.0000       0.314861         8.5678 
  74   0.0000       0.324895         8.8408 
  75   0.0000       0.331172         9.0116 
  76   0.0000       0.334273         9.0960 
  77   0.0000       0.334544         9.1034 
  78   0.0000       0.344786         9.3821 
  79   0.0000       0.349868         9.5204 
  80   0.0000       0.361693         9.8422 
  81   0.0000       0.371579        10.1112 
  82   0.0000       0.384817        10.4714 
  83   0.0000       0.405035        11.0216 
  84   0.0000       0.414389        11.2761 
  85   0.0000       0.429730        11.6936 
  86   0.0000       0.432399        11.7662 
  87   0.0000       0.434584        11.8256 
  88   0.0000       0.436747        11.8845 
  89   0.0000       0.445178        12.1139 
  90   0.0000       0.445434        12.1209 
  91   0.0000       0.451904        12.2969 
  92   0.0000       0.467253        12.7146 
  93   0.0000       0.478595        13.0232 
  94   0.0000       0.488541        13.2939 
  95   0.0000       0.490519        13.3477 
  96   0.0000       0.495442        13.4817 
  97   0.0000       0.523763        14.2523 
  98   0.0000       0.525659        14.3039 
  99   0.0000       0.537990        14.6395 
 100   0.0000       0.544726        14.8227 
 101   0.0000       0.545316        14.8388 
 102   0.0000       0.549936        14.9645 
 103   0.0000       0.556630        15.1467 
 104   0.0000       0.564871        15.3709 
 105   0.0000       0.584314        15.9000 
 106   0.0000       0.589188        16.0326 
 107   0.0000       0.596103        16.2208 
 108   0.0000       0.598760        16.2931 
 109   0.0000       0.611291        16.6341 
 110   0.0000       0.623531        16.9671 
 111   0.0000       0.634534        17.2665 
 112   0.0000       0.643188        17.5020 
 113   0.0000       0.645249        17.5581 
 114   0.0000       0.659902        17.9568 
 115   0.0000       0.665382        18.1060 
 116   0.0000       0.671557        18.2740 
 117   0.0000       0.685628        18.6569 
 118   0.0000       0.689069        18.7505 
 119   0.0000       0.693773        18.8785 
 120   0.0000       0.707558        19.2536 
 121   0.0000       0.713662        19.4197 
 122   0.0000       0.716215        19.4892 
 123   0.0000       0.718424        19.5493 
 124   0.0000       0.749107        20.3842 
 125   0.0000       0.751963        20.4620 
 126   0.0000       0.758446        20.6384 
 127   0.0000       0.807844        21.9825 
 128   0.0000       0.811249        22.0752 
 129   0.0000       0.820017        22.3138 
 130   0.0000       0.836062        22.7504 
 131   0.0000       0.852516        23.1982 
 132   0.0000       0.859563        23.3899 
 133   0.0000       0.873169        23.7601 
 134   0.0000       0.878137        23.8953 
 135   0.0000       0.905746        24.6466 
 136   0.0000       0.907288        24.6885 
 137   0.0000       0.950102        25.8536 
 138   0.0000       0.957415        26.0526 
 139   0.0000       0.989601        26.9284 
 140   0.0000       0.998143        27.1609 
 141   0.0000       1.003527        27.3074 
 142   0.0000       1.014568        27.6078 
 143   0.0000       1.017586        27.6899 
 144   0.0000       1.028061        27.9750 
 145   0.0000       1.090160        29.6648 
 146   0.0000       1.132859        30.8267 
 147   0.0000       1.138462        30.9791 
 148   0.0000       1.174874        31.9699 
 149   0.0000       1.197100        32.5748 
 150   0.0000       1.228587        33.4316 
 151   0.0000       1.240791        33.7636 
 152   0.0000       1.290509        35.1165 
 153   0.0000       1.300171        35.3795 
 154   0.0000       1.324813        36.0500 
 155   0.0000       1.355215        36.8773 
 156   0.0000       1.366972        37.1972 
 157   0.0000       1.400142        38.0998 
 158   0.0000       1.420429        38.6518 
 159   0.0000       1.454690        39.5841 
 160   0.0000       1.455089        39.5950 
 161   0.0000       1.458662        39.6922 
 162   0.0000       1.478643        40.2359 
 163   0.0000       1.488414        40.5018 
 164   0.0000       1.511032        41.1173 
 165   0.0000       1.517061        41.2813 
 166   0.0000       1.535723        41.7892 
 167   0.0000       1.555282        42.3214 
 168   0.0000       1.570164        42.7263 
 169   0.0000       1.588555        43.2268 
 170   0.0000       1.608674        43.7742 
 171   0.0000       1.610409        43.8214 
 172   0.0000       1.626581        44.2615 
 173   0.0000       1.645013        44.7631 
 174   0.0000       1.647577        44.8328 
 175   0.0000       1.687672        45.9239 
 176   0.0000       1.698378        46.2152 
 177   0.0000       1.699330        46.2411 
 178   0.0000       1.727321        47.0028 
 179   0.0000       1.748861        47.5889 
 180   0.0000       1.767152        48.0866 
 181   0.0000       1.779700        48.4281 
 182   0.0000       1.832826        49.8737 
 183   0.0000       1.842662        50.1414 
 184   0.0000       1.861363        50.6503 
 185   0.0000       1.865611        50.7659 
 186   0.0000       1.889139        51.4061 
 187   0.0000       1.924769        52.3756 
 188   0.0000       1.961578        53.3773 
 189   0.0000       1.977287        53.8047 
 190   0.0000       1.985450        54.0268 
 191   0.0000       2.008142        54.6443 
 192   0.0000       2.019855        54.9630 
 193   0.0000       2.034912        55.3728 
 194   0.0000       2.039307        55.4924 
 195   0.0000       2.042607        55.5822 
 196   0.0000       2.079114        56.5756 
 197   0.0000       2.085358        56.7455 
 198   0.0000       2.089856        56.8679 
 199   0.0000       2.114714        57.5443 
 200   0.0000       2.171015        59.0763 
 201   0.0000       2.222752        60.4842 
 202   0.0000       2.229449        60.6664 
 203   0.0000       2.271755        61.8176 
 204   0.0000       2.323204        63.2176 
 205   0.0000       2.338183        63.6252 
 206   0.0000       2.341284        63.7096 
 207   0.0000       2.369303        64.4720 
 208   0.0000       2.379600        64.7522 
 209   0.0000       2.458294        66.8936 
 210   0.0000       2.468334        67.1668 
 211   0.0000       2.470793        67.2337 
 212   0.0000       2.488116        67.7051 
 213   0.0000       2.503438        68.1220 
 214   0.0000       2.527301        68.7714 
 215   0.0000       2.527661        68.7811 
 216   0.0000       2.570783        69.9546 
 217   0.0000       2.605215        70.8915 
 218   0.0000       2.621116        71.3242 
 219   0.0000       2.677463        72.8575 
 220   0.0000       2.704206        73.5852 
 221   0.0000       2.764356        75.2219 
 222   0.0000       2.773517        75.4712 
 223   0.0000       2.791150        75.9510 
 224   0.0000       2.903889        79.0188 
 225   0.0000       3.006973        81.8239 
 226   0.0000       3.015602        82.0587 
 227   0.0000       3.026564        82.3570 
 228   0.0000       3.113861        84.7325 
 229   0.0000       3.485634        94.8489 
 230   0.0000       3.810170       103.6800 
 231   0.0000       4.144014       112.7644 
 232   0.0000       4.930793       134.1737 

                    ********************************
                    * MULLIKEN POPULATION ANALYSIS *
                    ********************************

-----------------------
MULLIKEN ATOMIC CHARGES
-----------------------
   0 C :    0.595282
   1 C :    0.904673
   2 C :    0.913466
   3 C :    0.881413
   4 H :   -0.792534
   5 C :    0.607076
   6 C :    0.900732
   7 H :   -0.803749
   8 C :    0.889769
   9 H :   -0.794410
  10 H :   -0.452950
  11 H :   -0.449617
  12 H :   -0.785621
  13 H :   -0.803361
  14 H :   -0.810168
Sum of atomic charges:   -0.0000000

--------------------------------
MULLIKEN REDUCED ORBITAL CHARGES
--------------------------------
  0 C s       :    66.981404  s :    66.981404
      pz      :     2.533550  p :     7.078581
      px      :     2.422722
      py      :     2.122310
      dz2     :    -0.006738  d :    -0.117524
      dxz     :    -0.027516
      dyz     :    -0.012363
      dx2y2   :    -0.022652
      dxy     :    -0.048255
  1 C s       :    66.120292  s :    66.120292
      pz      :     2.101773  p :     7.400265
      px      :     2.419155
      py      :     2.879338
      dz2     :    -0.111049  d :    -0.242826
      dxz     :    -0.098329
      dyz     :    -0.021461
      dx2y2   :    -0.010768
      dxy     :    -0.001219
  2 C s       :    66.236095  s :    66.236095
      pz      :     2.845632  p :     7.338545
      px      :     2.390141
      py      :     2.102772
      dz2     :     0.019885  d :    -0.236393
      dxz     :    -0.036652
      dyz     :    -0.037443
      dx2y2   :    -0.077589
      dxy     :    -0.104593
  3 C s       :    66.272221  s :    66.272221
      pz      :     2.019632  p :     7.370022
      px      :     2.454820
      py      :     2.895570
      dz2     :    -0.062680  d :    -0.240651
      dxz     :    -0.084259
      dyz     :    -0.041716
      dx2y2   :     0.009396
      dxy     :    -0.061393
  4 H s       :     0.134723  s :     0.134723
      pz      :    -0.061552  p :    -0.087407
      px      :    -0.017228
      py      :    -0.008627
  5 C s       :    66.949743  s :    66.949743
      pz      :     2.307471  p :     7.129240
      px      :     2.396332
      py      :     2.425437
      dz2     :    -0.027316  d :    -0.117144
      dxz     :    -0.043786
      dyz     :     0.013561
      dx2y2   :    -0.037283
      dxy     :    -0.022321
  6 C s       :    66.286565  s :    66.286565
      pz      :     2.852490  p :     7.344943
      px      :     2.362137
      py      :     2.130316
      dz2     :     0.001420  d :    -0.236637
      dxz     :     0.001445
      dyz     :    -0.020883
      dx2y2   :    -0.122071
      dxy     :    -0.096548
  7 H s       :     0.127440  s :     0.127440
      pz      :     0.001814  p :    -0.085238
      px      :    -0.044121
      py      :    -0.042932
  8 C s       :    70.000884  s :    70.000884
      pz      :     2.440629  p :     7.362458
      px      :     2.472014
      py      :     2.449816
      dz2     :    -0.009920  d :    -0.134044
      dxz     :    -0.028954
      dyz     :    -0.054620
      dx2y2   :    -0.012007
      dxy     :    -0.028543
  9 H s       :     0.247198  s :     0.247198
      pz      :    -0.013097  p :    -0.078324
      px      :    -0.037857
      py      :    -0.027370
 10 H s       :     0.551583  s :     0.551583
      pz      :    -0.035697  p :    -0.066712
      px      :    -0.009976
      py      :    -0.021039
 11 H s       :     0.571144  s :     0.571144
      pz      :    -0.016585  p :    -0.063936
      px      :    -0.010541
      py      :    -0.036810
 12 H s       :     0.251212  s :     0.251212
      pz      :    -0.020217  p :    -0.077927
      px      :    -0.037187
      py      :    -0.020524
 13 H s       :     0.132134  s :     0.132134
      pz      :    -0.049430  p :    -0.087899
      px      :    -0.040326
      py      :     0.001857
 14 H s       :     0.117849  s :     0.117849
      pz      :    -0.010619  p :    -0.083523
      px      :    -0.017518
      py      :    -0.055387


                     *******************************
                     * LOEWDIN POPULATION ANALYSIS *
                     *******************************

----------------------
LOEWDIN ATOMIC CHARGES
----------------------
   0 C :   -0.473050
   1 C :   -0.319507
   2 C :   -0.312621
   3 C :   -0.319597
   4 H :    0.309567
   5 C :   -0.473095
   6 C :   -0.312620
   7 H :    0.308299
   8 C :   -0.307536
   9 H :    0.301012
  10 H :    0.339976
  11 H :    0.340060
  12 H :    0.301217
  13 H :    0.309469
  14 H :    0.308426

-------------------------------
LOEWDIN REDUCED ORBITAL CHARGES
-------------------------------
  0 C s       :     2.153397  s :     2.153397
      pz      :     0.903421  p :     2.806169
      px      :     0.938534
      py      :     0.964213
      dz2     :     0.324657  d :     1.513485
      dxz     :     0.269072
      dyz     :     0.297736
      dx2y2   :     0.245388
      dxy     :     0.376631
  1 C s       :     2.136242  s :     2.136242
      pz      :     1.036756  p :     2.764223
      px      :     0.888928
      py      :     0.838540
      dz2     :     0.417427  d :     1.419042
      dxz     :     0.313703
      dyz     :     0.222980
      dx2y2   :     0.223338
      dxy     :     0.241594
  2 C s       :     2.137357  s :     2.137357
      pz      :     0.846832  p :     2.762308
      px      :     0.975091
      py      :     0.940385
      dz2     :     0.227673  d :     1.412956
      dxz     :     0.227032
      dyz     :     0.248520
      dx2y2   :     0.311703
      dxy     :     0.398028
  3 C s       :     2.136421  s :     2.136421
      pz      :     0.947566  p :     2.763574
      px      :     0.972126
      py      :     0.843882
      dz2     :     0.287891  d :     1.419602
      dxz     :     0.401894
      dyz     :     0.288952
      dx2y2   :     0.208109
      dxy     :     0.232756
  4 H s       :     0.395810  s :     0.395810
      pz      :     0.137978  p :     0.294623
      px      :     0.078037
      py      :     0.078608
  5 C s       :     2.153322  s :     2.153322
      pz      :     0.919207  p :     2.807343
      px      :     0.941532
      py      :     0.946604
      dz2     :     0.251022  d :     1.512430
      dxz     :     0.337556
      dyz     :     0.279234
      dx2y2   :     0.348043
      dxy     :     0.296575
  6 C s       :     2.137439  s :     2.137439
      pz      :     0.868541  p :     2.762723
      px      :     0.883766
      py      :     1.010416
      dz2     :     0.200179  d :     1.412458
      dxz     :     0.249363
      dyz     :     0.247463
      dx2y2   :     0.419177
      dxy     :     0.296275
  7 H s       :     0.396283  s :     0.396283
      pz      :     0.083577  p :     0.295418
      px      :     0.118707
      py      :     0.093134
  8 C s       :     2.201500  s :     2.201500
      pz      :     0.989180  p :     2.951559
      px      :     0.971963
      py      :     0.990416
      dz2     :     0.260465  d :     1.154477
      dxz     :     0.256836
      dyz     :     0.142628
      dx2y2   :     0.228140
      dxy     :     0.266408
  9 H s       :     0.398203  s :     0.398203
      pz      :     0.076404  p :     0.300785
      px      :     0.128551
      py      :     0.095830
 10 H s       :     0.383362  s :     0.383362
      pz      :     0.072414  p :     0.276662
      px      :     0.081476
      py      :     0.122772
 11 H s       :     0.383182  s :     0.383182
      pz      :     0.136961  p :     0.276757
      px      :     0.079769
      py      :     0.060027
 12 H s       :     0.398143  s :     0.398143
      pz      :     0.099080  p :     0.300640
      px      :     0.131056
      py      :     0.070504
 13 H s       :     0.395897  s :     0.395897
      pz      :     0.080673  p :     0.294634
      px      :     0.115716
      py      :     0.098244
 14 H s       :     0.396382  s :     0.396382
      pz      :     0.075668  p :     0.295193
      px      :     0.077012
      py      :     0.142512


                      *****************************
                      * MAYER POPULATION ANALYSIS *
                      *****************************

  NA   - Mulliken gross atomic population
  ZA   - Total nuclear charge
  QA   - Mulliken gross atomic charge
  VA   - Mayer's total valence
  BVA  - Mayer's bonded valence
  FA   - Mayer's free valence

  ATOM       NA         ZA         QA         VA         BVA        FA
  0 C      5.4047     6.0000     0.5953     3.6823     3.6823    -0.0000
  1 C      5.0953     6.0000     0.9047     3.2211     3.2211    -0.0000
  2 C      5.0865     6.0000     0.9135     3.1833     3.1833     0.0000
  3 C      5.1186     6.0000     0.8814     3.2510     3.2510    -0.0000
  4 H      1.7925     1.0000    -0.7925     0.1205     0.1205     0.0000
  5 C      5.3929     6.0000     0.6071     3.6218     3.6218    -0.0000
  6 C      5.0993     6.0000     0.9007     3.1935     3.1935    -0.0000
  7 H      1.8037     1.0000    -0.8037     0.1180     0.1180    -0.0000
  8 C      5.1102     6.0000     0.8898     3.1792     3.1792     0.0000
  9 H      1.7944     1.0000    -0.7944     0.1594     0.1594    -0.0000
 10 H      1.4529     1.0000    -0.4529     0.5190     0.5190    -0.0000
 11 H      1.4496     1.0000    -0.4496     0.5324     0.5324     0.0000
 12 H      1.7856     1.0000    -0.7856     0.1650     0.1650    -0.0000
 13 H      1.8034     1.0000    -0.8034     0.1098     0.1098    -0.0000
 14 H      1.8102     1.0000    -0.8102     0.1068     0.1068     0.0000

  Mayer bond orders larger than 0.1
B(  0-C ,  1-C ) :   1.1643 B(  0-C ,  2-C ) :   1.1470 B(  0-C ,  3-C ) :  -0.1447 
B(  0-C ,  4-H ) :   0.1112 B(  0-C ,  5-C ) :   0.1949 B(  0-C ,  6-C ) :  -0.1449 
B(  0-C ,  7-H ) :   0.1118 B(  0-C ,  8-C ) :   1.1329 B(  0-C ,  9-H ) :  -0.1319 
B(  0-C , 10-H ) :   0.1294 B(  0-C , 11-H ) :   0.1166 B(  1-C ,  2-C ) :   0.8938 
B(  1-C ,  3-C ) :   1.2145 B(  1-C ,  4-H ) :  -0.3132 B(  1-C ,  5-C ) :  -0.1524 
B(  1-C ,  9-H ) :   0.1317 B(  1-C , 13-H ) :   0.2341 B(  2-C ,  5-C ) :  -0.1464 
B(  2-C ,  6-C ) :   1.1892 B(  2-C ,  7-H ) :  -0.2996 B(  2-C ,  9-H ) :   0.1198 
B(  2-C , 14-H ) :   0.2199 B(  3-C ,  4-H ) :   0.2430 B(  3-C ,  5-C ) :   1.1542 
B(  3-C ,  6-C ) :   0.8845 B(  3-C , 12-H ) :   0.1189 B(  3-C , 13-H ) :  -0.2914 
B(  5-C ,  6-C ) :   1.1733 B(  5-C ,  8-C ) :   1.1322 B(  5-C , 12-H ) :  -0.1300 
B(  5-C , 14-H ) :   0.1259 B(  6-C ,  7-H ) :   0.2085 B(  6-C , 12-H ) :   0.1243 
B(  6-C , 14-H ) :  -0.2967 B(  8-C , 10-H ) :   0.4201 B(  8-C , 11-H ) :   0.4390 
B( 10-H , 11-H ) :  -0.1757 

-------
TIMINGS
-------

Total SCF time: 0 days 0 hours 4 min 51 sec 

Total time                  ....     291.862 sec
Sum of individual times     ....     291.812 sec  (100.0%)

Fock matrix formation       ....     287.824 sec  ( 98.6%)
  XC integration            ....      12.736 sec  (  4.4% of F)
    Basis function eval.    ....       5.752 sec  ( 45.2% of XC)
    Density eval.           ....       1.517 sec  ( 11.9% of XC)
    XC-Functional eval.     ....       0.195 sec  (  1.5% of XC)
    XC-Potential eval.      ....       5.179 sec  ( 40.7% of XC)
Diagonalization             ....       0.057 sec  (  0.0%)
Density matrix formation    ....       0.006 sec  (  0.0%)
Population analysis         ....       0.019 sec  (  0.0%)
Initial guess               ....       1.407 sec  (  0.5%)
Orbital Transformation      ....       0.000 sec  (  0.0%)
Orbital Orthonormalization  ....       0.000 sec  (  0.0%)
DIIS solution               ....       0.011 sec  (  0.0%)
SOSCF solution              ....       0.030 sec  (  0.0%)
Grid generation             ....       2.459 sec  (  0.8%)

-------------------------   --------------------
FINAL SINGLE POINT ENERGY      -271.274873700380
-------------------------   --------------------


                            ***************************************
                            *     ORCA property calculations      *
                            ***************************************

                                    ---------------------
                                    Active property flags
                                    ---------------------
   (+) Dipole Moment
   (+) Chemical Shifts


------------------------------------------------------------------------------
                       ORCA ELECTRIC PROPERTIES CALCULATION
------------------------------------------------------------------------------

Dipole Moment Calculation                       ... on
Quadrupole Moment Calculation                   ... off
Polarizability Calculation                      ... off
GBWName                                         ... /home/jan/SoftwareDevelopment/ORCAunleashed/output/tetracyclo_compound/tetracyclo_compound.gbw
Electron density file                           ... /home/jan/SoftwareDevelopment/ORCAunleashed/output/tetracyclo_compound/tetracyclo_compound.scfp.tmp

-------------
DIPOLE MOMENT
-------------
                                X             Y             Z
Electronic contribution:      0.02374       0.73370       0.53564
Nuclear contribution   :     -0.02177      -0.62238      -0.46033
                        -----------------------------------------
Total Dipole Moment    :      0.00198       0.11132       0.07531
                        -----------------------------------------
Magnitude (a.u.)       :      0.13442
Magnitude (Debye)      :      0.34167

------------------------------------------------------------------------------
                                ORCA EPR/NMR CALCULATION
------------------------------------------------------------------------------

GBWName                      ... /home/jan/SoftwareDevelopment/ORCAunleashed/output/tetracyclo_compound/tetracyclo_compound.gbw
Electron density file        ... /home/jan/SoftwareDevelopment/ORCAunleashed/output/tetracyclo_compound/tetracyclo_compound.scfp.tmp
Spin density file            ... /home/jan/SoftwareDevelopment/ORCAunleashed/output/tetracyclo_compound/tetracyclo_compound.scfr.tmp
Treatment of gauge           ... GIAO (approximations 1/2el = 0,3)
Details of the CP(SCF) procedure:
       Solver   = POPLE   
       MaxIter  =    64   
       Tolerance=    1.000e-06
       Op-0     =   0- 24 =>  25-232
Multiplicity                 ... 1
g-tensor                     ... 0
NMR chemical shifts          ... 1
Number of nuclei for epr/nmr ... 15
   Nucleus:   0C 
       Hyperfine : Isotope=   13 I=   0.500 P= 134.188
       Quadrupole: Isotope=   13 I=   0.500 Q=   0.000
       Spin-Orbit: Zeff=   3.600
       rho(0)=N f(grad)=N a(iso)=N a(dip)=N a(orb)=N sigma(nmr)=Y
   Nucleus:   1C 
       Hyperfine : Isotope=   13 I=   0.500 P= 134.188
       Quadrupole: Isotope=   13 I=   0.500 Q=   0.000
       Spin-Orbit: Zeff=   3.600
       rho(0)=N f(grad)=N a(iso)=N a(dip)=N a(orb)=N sigma(nmr)=Y
   Nucleus:   2C 
       Hyperfine : Isotope=   13 I=   0.500 P= 134.188
       Quadrupole: Isotope=   13 I=   0.500 Q=   0.000
       Spin-Orbit: Zeff=   3.600
       rho(0)=N f(grad)=N a(iso)=N a(dip)=N a(orb)=N sigma(nmr)=Y
   Nucleus:   3C 
       Hyperfine : Isotope=   13 I=   0.500 P= 134.188
       Quadrupole: Isotope=   13 I=   0.500 Q=   0.000
       Spin-Orbit: Zeff=   3.600
       rho(0)=N f(grad)=N a(iso)=N a(dip)=N a(orb)=N sigma(nmr)=Y
   Nucleus:   4H 
       Hyperfine : Isotope=    1 I=   0.500 P= 533.552
       Quadrupole: Isotope=    2 I=   1.000 Q=   0.003
       Spin-Orbit: Zeff=   1.000
       rho(0)=N f(grad)=N a(iso)=N a(dip)=N a(orb)=N sigma(nmr)=Y
   Nucleus:   5C 
       Hyperfine : Isotope=   13 I=   0.500 P= 134.188
       Quadrupole: Isotope=   13 I=   0.500 Q=   0.000
       Spin-Orbit: Zeff=   3.600
       rho(0)=N f(grad)=N a(iso)=N a(dip)=N a(orb)=N sigma(nmr)=Y
   Nucleus:   6C 
       Hyperfine : Isotope=   13 I=   0.500 P= 134.188
       Quadrupole: Isotope=   13 I=   0.500 Q=   0.000
       Spin-Orbit: Zeff=   3.600
       rho(0)=N f(grad)=N a(iso)=N a(dip)=N a(orb)=N sigma(nmr)=Y
   Nucleus:   7H 
       Hyperfine : Isotope=    1 I=   0.500 P= 533.552
       Quadrupole: Isotope=    2 I=   1.000 Q=   0.003
       Spin-Orbit: Zeff=   1.000
       rho(0)=N f(grad)=N a(iso)=N a(dip)=N a(orb)=N sigma(nmr)=Y
   Nucleus:   8C 
       Hyperfine : Isotope=   13 I=   0.500 P= 134.188
       Quadrupole: Isotope=   13 I=   0.500 Q=   0.000
       Spin-Orbit: Zeff=   3.600
       rho(0)=N f(grad)=N a(iso)=N a(dip)=N a(orb)=N sigma(nmr)=Y
   Nucleus:   9H 
       Hyperfine : Isotope=    1 I=   0.500 P= 533.552
       Quadrupole: Isotope=    2 I=   1.000 Q=   0.003
       Spin-Orbit: Zeff=   1.000
       rho(0)=N f(grad)=N a(iso)=N a(dip)=N a(orb)=N sigma(nmr)=Y
   Nucleus:  10H 
       Hyperfine : Isotope=    1 I=   0.500 P= 533.552
       Quadrupole: Isotope=    2 I=   1.000 Q=   0.003
       Spin-Orbit: Zeff=   1.000
       rho(0)=N f(grad)=N a(iso)=N a(dip)=N a(orb)=N sigma(nmr)=Y
   Nucleus:  11H 
       Hyperfine : Isotope=    1 I=   0.500 P= 533.552
       Quadrupole: Isotope=    2 I=   1.000 Q=   0.003
       Spin-Orbit: Zeff=   1.000
       rho(0)=N f(grad)=N a(iso)=N a(dip)=N a(orb)=N sigma(nmr)=Y
   Nucleus:  12H 
       Hyperfine : Isotope=    1 I=   0.500 P= 533.552
       Quadrupole: Isotope=    2 I=   1.000 Q=   0.003
       Spin-Orbit: Zeff=   1.000
       rho(0)=N f(grad)=N a(iso)=N a(dip)=N a(orb)=N sigma(nmr)=Y
   Nucleus:  13H 
       Hyperfine : Isotope=    1 I=   0.500 P= 533.552
       Quadrupole: Isotope=    2 I=   1.000 Q=   0.003
       Spin-Orbit: Zeff=   1.000
       rho(0)=N f(grad)=N a(iso)=N a(dip)=N a(orb)=N sigma(nmr)=Y
   Nucleus:  14H 
       Hyperfine : Isotope=    1 I=   0.500 P= 533.552
       Quadrupole: Isotope=    2 I=   1.000 Q=   0.003
       Spin-Orbit: Zeff=   1.000
       rho(0)=N f(grad)=N a(iso)=N a(dip)=N a(orb)=N sigma(nmr)=Y
Using LibInt in CPSCF-CP

Forming RHS of the CP-SCF equations         ... 
Calculating right hand sides for GIAO treatment (new)  ... 
  Entering RightHandSide GIAO. ScalHFX=    0.2000 NeedHFX=1
     -> 1-electron GIAO integrals will be done analytically
     -> SCF done analytically but RIJK requested in GIAOs
     -> using RIJK
     Making grid for GIAO integrations   ... done
     Test of existence of the V matrix   = 0
     Test of existence of the VCD matrix = 0
     Test of existence of the VO matrix  = 0
     Warning: RI is turned on for GIAO but the V matrix or its Cholesky decomposition are not found - making it
     Calculating V           ... done
     Cholesky decomposition  ... done
     Storing V and VCD       ... done
     Cholesky decomposition-2... done
     Storing VO              ... done
  Getting the pre-screening matrix        ... done
  Extracting occupied and virtual blocks  ... 
  Operator  0  NO=  25 NV= 208 
  One-electron GIAO integrals             ...   done
  Transforming and RHS contribution       ...   done
  Projecting overlap derivatives          ...   done
  Building G(dS/dB_ij)                    ...   done
  Transforming to MO basis/RHS contribs.  ...   done
  Calculating F[B](P)                     ...  (RI-JK)
---------------------
RI-GIAO-TRANSFORMATION (AUX index driven)
----------------------

Dimension of the orbital-basis         ... 233
Dimension of the aux-basis             ... 1552
Number of (i,a) MOs                    ... 25,208
Number of ij,ia,ab pairs               ... 625,5200,43264
Transformation of internal MOs         ...    0-  24
Transformation of internal/external MOs...    0-  24 to   25- 232

Mapping shells                                 ... done
Making shell addresses                         ... done
Figuring out significant basis function pairs  ... done
  N(Pairs)         ... 27261
  N(Strong pairs)  ... 27261
  Mem-Available    ... 1024 MB
  (p,q) per batch  ... 10805
  N(Batches)       ... 3
Preparing matrix containers                    ... done
Preparing AO buffer                            ... done
Calculating AO integrals and transforming AUX  ... done
Finished RI-GIAO integral generation and aux-index transformation in 18.691 sec
Mapping the MO pairs                            ... done
Getting memory                                  ... done
Second Phase: sorting and transformation of MO indices
Memory available                       ... 1024 MB 
Max. # Aux fcns treated in a batch     ... 1229    
Initializing the MO transformation process      ... done
Batch   0: Q=   0 ... 1228
   Reading      ... done
   Transforming ... done
Batch   1: Q=1229 ... 1551
   Reading      ... done
   Transforming ... done
Finished transformation of the MO indices in 16.957 sec
Initializing the sorting process                ... done

IJ-Resorting
# of internal pairs                    ... 625
# batches for internal pairs           ... 1
   (0) Reading      ... done
   (0) Writing      ... done
   (1) Reading      ... done
   (1) Writing      ... done
   (2) Reading      ... done
   (2) Writing      ... done
   (3) Reading      ... done
   (3) Writing      ... done
(ij|v) resorting done in     0.114 sec

IA-Resorting
# of internal orbitals                 ... 25
# batches for internal orbitals        ... 1
   (0) Reading      ... done
   (0) Writing      ... done
   (1) Reading      ... done
   (1) Writing      ... done
   (2) Reading      ... done
   (2) Writing      ... done
   (3) Reading      ... done
   (3) Writing      ... done
(ia|v) resorting done in     0.339 sec

  Resorting completed in     0.455 sec
RI-GIAO-Integral transformation completed in    36.150 sec
Reading RI-integrals ... done
Doing RI-JK          ... done
 => dG/dB done
  RI-JK GIAO contributions                ...   done
  DFT XC-terms                            ... done
  Transforming to MO basis/RHS contribs.  ... done
  GIAO profiling information: 
    Total GIAO time               ...     136.2 sec
       Grid setup                 ...       0.5 sec (  0.4%)
       RI-V-matrix setup          ...       0.3 sec (  0.2%)
       GIAO 1-electron integrals  ...       0.1 sec (  0.0%)
       GIAO G(dS/dB) terms        ...      32.4 sec ( 23.8%)
       GIAO RI-JK                 ...      62.2 sec ( 45.7%)
       GIAO RI integral trafo     ...      36.1 sec ( 26.5%)
       GIAO XC-terms              ...       4.6 sec (  3.4%)
       Right hand side assembly   ...       0.0 sec (  0.0%)

  GIAO right hand side done

     CP-SCF ITERATION   0: 
     CP-SCF ITERATION   1:      0.000562563
     CP-SCF ITERATION   2:      0.000002477
     CP-SCF ITERATION   3:      0.000000269

Forming final perturbed densities           ... done
Transforming perturbed density to AO basis  ...  done

Magnetic field perturbation calculated in 266.324 sec

---------------
CHEMICAL SHIFTS
---------------

Note: using conversion factor for au to ppm alpha^2/2 =   26.625677252 
Doing GIAO para- and diamagnetic shielding integrals analytically     ...done
Doing remaining GIAO terms numerically                                ...done
 --------------
 Nucleus   0C :
 --------------

Diamagnetic contribution to the shielding tensor (ppm) : 
           196.185        -27.017        33.912
           -24.082        174.021        65.625
            49.754         27.168       179.747

Paramagnetic contribution to the shielding tensor (ppm): 
            -4.968         23.730        -5.352
            25.881        -33.071       -70.979
           -18.867        -35.925        -8.449

Total shielding tensor (ppm): 
           191.217         -3.287        28.560
             1.799        140.950        -5.354
            30.887         -8.757       171.298


 Diagonalized sT*s matrix:
 
 sDSO           209.921          111.041          228.991  iso=     183.318
 sPSO           -71.667           41.258          -16.080  iso=     -15.496
        ---------------  ---------------  ---------------
 Total          138.254          152.299          212.911  iso=     167.821

 --------------
 Nucleus   1C :
 --------------

Diamagnetic contribution to the shielding tensor (ppm) : 
           223.843         22.928         5.481
           -18.617        256.636         5.542
           -32.188        -16.306       215.466

Paramagnetic contribution to the shielding tensor (ppm): 
           -20.626        -40.023        25.317
             0.125        -88.960         7.081
            54.382         17.497       -28.445

Total shielding tensor (ppm): 
           203.217        -17.095        30.798
           -18.492        167.676        12.623
            22.194          1.191       187.021


 Diagonalized sT*s matrix:
 
 sDSO           250.810          233.977          211.158  iso=     231.982
 sPSO          -100.114          -51.551           13.634  iso=     -46.010
        ---------------  ---------------  ---------------
 Total          150.696          182.426          224.792  iso=     185.971

 --------------
 Nucleus   2C :
 --------------

Diamagnetic contribution to the shielding tensor (ppm) : 
           232.071         -8.452       -25.112
             3.633        203.245       -56.772
           -14.042          5.530       210.826

Paramagnetic contribution to the shielding tensor (ppm): 
           -31.835         -3.951        51.786
           -11.768        -21.273        54.245
            50.235          2.072       -38.876

Total shielding tensor (ppm): 
           200.236        -12.403        26.674
            -8.135        181.972        -2.527
            36.193          7.602       171.950


 Diagonalized sT*s matrix:
 
 sDSO           242.416          189.488          214.238  iso=     215.380
 sPSO           -92.659           -6.985            7.659  iso=     -30.661
        ---------------  ---------------  ---------------
 Total          149.757          182.503          221.897  iso=     184.719

 --------------
 Nucleus   3C :
 --------------

Diamagnetic contribution to the shielding tensor (ppm) : 
           236.627         27.385        -1.448
            17.109        273.595        16.517
           -31.551         -8.417       224.088

Paramagnetic contribution to the shielding tensor (ppm): 
           -34.720        -51.084        19.308
           -50.828        -96.640        -6.326
            49.511          7.848       -45.843

Total shielding tensor (ppm): 
           201.906        -23.699        17.860
           -33.719        176.956        10.191
            17.960         -0.569       178.246


 Diagonalized sT*s matrix:
 
 sDSO           274.642          241.753          217.915  iso=     244.770
 sPSO          -124.019          -59.522            6.338  iso=     -59.068
        ---------------  ---------------  ---------------
 Total          150.624          182.231          224.253  iso=     185.703

 --------------
 Nucleus   4H :
 --------------

Diamagnetic contribution to the shielding tensor (ppm) : 
            36.084         -1.785         1.566
             7.623         31.917        -1.761
            -9.602        -13.117        34.903

Paramagnetic contribution to the shielding tensor (ppm): 
            -8.282          1.242         5.654
            -9.223         -5.787        -0.790
            11.025         13.930         4.292

Total shielding tensor (ppm): 
            27.802         -0.543         7.219
            -1.600         26.130        -2.552
             1.423          0.813        39.195


 Diagonalized sT*s matrix:
 
 sDSO            38.491           30.922           33.491  iso=      34.301
 sPSO           -13.050           -3.943            7.216  iso=      -3.259
        ---------------  ---------------  ---------------
 Total           25.441           26.979           40.707  iso=      31.042

 --------------
 Nucleus   5C :
 --------------

Diamagnetic contribution to the shielding tensor (ppm) : 
           210.393        -10.672        19.413
            -6.284        219.375        38.478
             0.088         12.487       244.684

Paramagnetic contribution to the shielding tensor (ppm): 
           -21.681        -17.557       -11.121
           -27.282        -53.383       -53.374
             5.788        -23.946       -95.716

Total shielding tensor (ppm): 
           188.712        -28.229         8.292
           -33.566        165.992       -14.896
             5.876        -11.459       148.968


 Diagonalized sT*s matrix:
 
 sDSO           251.983          202.821          219.648  iso=     224.818
 sPSO          -113.350          -50.856           -6.574  iso=     -56.927
        ---------------  ---------------  ---------------
 Total          138.633          151.965          213.074  iso=     167.891

 --------------
 Nucleus   6C :
 --------------

Diamagnetic contribution to the shielding tensor (ppm) : 
           219.267        -11.713       -26.089
           -12.372        217.786       -51.989
           -16.200          5.363       238.504

Paramagnetic contribution to the shielding tensor (ppm): 
           -18.074        -11.815        49.019
            -3.763        -28.291        47.222
            38.974          2.806       -75.577

Total shielding tensor (ppm): 
           201.193        -23.528        22.930
           -16.135        189.495        -4.767
            22.774          8.169       162.926


 Diagonalized sT*s matrix:
 
 sDSO           256.779          191.883          226.894  iso=     225.186
 sPSO          -107.301           -9.310           -5.331  iso=     -40.647
        ---------------  ---------------  ---------------
 Total          149.478          182.574          221.563  iso=     184.538

 --------------
 Nucleus   7H :
 --------------

Diamagnetic contribution to the shielding tensor (ppm) : 
            38.768         -1.567       -12.421
             3.231         29.555       -17.678
             4.685        -12.649        33.682

Paramagnetic contribution to the shielding tensor (ppm): 
            -1.736          9.703        15.581
            -1.192         -0.087        18.112
            -1.097         15.393        -7.285

Total shielding tensor (ppm): 
            37.032          8.136         3.161
             2.038         29.468         0.434
             3.587          2.745        26.397


 Diagonalized sT*s matrix:
 
 sDSO            37.128           32.946           31.931  iso=      34.002
 sPSO           -11.717           -5.999            8.607  iso=      -3.036
        ---------------  ---------------  ---------------
 Total           25.412           26.947           40.538  iso=      30.966

 --------------
 Nucleus   8C :
 --------------

Diamagnetic contribution to the shielding tensor (ppm) : 
           232.763          6.860        -6.533
           -11.048        246.516        -6.947
           -15.615         -1.692       220.454

Paramagnetic contribution to the shielding tensor (ppm): 
           -72.937        -15.146        17.931
             2.900        -85.564        16.896
            27.237         11.891       -66.810

Total shielding tensor (ppm): 
           159.825         -8.286        11.398
            -8.148        160.952         9.950
            11.622         10.199       153.643


 Diagonalized sT*s matrix:
 
 sDSO           240.149          230.225          229.358  iso=     233.244
 sPSO          -102.562          -62.223          -60.527  iso=     -75.104
        ---------------  ---------------  ---------------
 Total          137.588          168.002          168.831  iso=     158.140

 --------------
 Nucleus   9H :
 --------------

Diamagnetic contribution to the shielding tensor (ppm) : 
            27.626         -4.351         6.293
           -10.300         23.279        14.126
            10.278         10.632        18.914

Paramagnetic contribution to the shielding tensor (ppm): 
             7.444         -5.066        -4.285
             6.285          6.710       -12.820
            -4.453        -13.525         7.510

Total shielding tensor (ppm): 
            35.070         -9.417         2.008
            -4.015         29.989         1.305
             5.826         -2.893        26.424


 Diagonalized sT*s matrix:
 
 sDSO             4.134           33.427           32.258  iso=      23.273
 sPSO            19.749           -6.449            8.365  iso=       7.222
        ---------------  ---------------  ---------------
 Total           23.883           26.977           40.622  iso=      30.494

 --------------
 Nucleus  10H :
 --------------

Diamagnetic contribution to the shielding tensor (ppm) : 
            28.054          2.044         0.122
             2.195         31.047        -9.468
            -8.927          2.994        16.177

Paramagnetic contribution to the shielding tensor (ppm): 
            -0.576          2.059         0.790
             0.998          4.911        10.977
             9.069         -3.425         9.458

Total shielding tensor (ppm): 
            27.478          4.102         0.911
             3.192         35.958         1.510
             0.142         -0.431        25.635


 Diagonalized sT*s matrix:
 
 sDSO            21.016           22.975           31.287  iso=      25.093
 sPSO             4.442            3.290            6.061  iso=       4.598
        ---------------  ---------------  ---------------
 Total           25.458           26.264           37.348  iso=      29.690

 --------------
 Nucleus  11H :
 --------------

Diamagnetic contribution to the shielding tensor (ppm) : 
            23.892          0.571        -3.151
           -12.022         37.765        -1.780
            -4.442          6.235        29.613

Paramagnetic contribution to the shielding tensor (ppm): 
             3.316         -2.426        -0.250
            11.108        -10.919         4.060
             1.870         -2.027         5.387

Total shielding tensor (ppm): 
            27.208         -1.855        -3.401
            -0.914         26.846         2.280
            -2.572          4.208        35.000


 Diagonalized sT*s matrix:
 
 sDSO            30.114           26.576           34.580  iso=      30.423
 sPSO            -4.559           -0.281            2.624  iso=      -0.738
        ---------------  ---------------  ---------------
 Total           25.556           26.296           37.204  iso=      29.685

 --------------
 Nucleus  12H :
 --------------

Diamagnetic contribution to the shielding tensor (ppm) : 
            33.755          2.300        -2.381
             3.208         36.451        -4.058
           -10.143         -6.610        44.561

Paramagnetic contribution to the shielding tensor (ppm): 
             1.566         -1.929        11.680
            -8.159        -10.154         2.062
            15.664          8.792       -14.804

Total shielding tensor (ppm): 
            35.321          0.370         9.299
            -4.951         26.297        -1.997
             5.521          2.182        29.757


 Diagonalized sT*s matrix:
 
 sDSO            49.044           34.059           31.663  iso=      38.256
 sPSO           -25.248           -7.123            8.980  iso=      -7.797
        ---------------  ---------------  ---------------
 Total           23.796           26.936           40.644  iso=      30.459

 --------------
 Nucleus  13H :
 --------------

Diamagnetic contribution to the shielding tensor (ppm) : 
            42.740         11.715         5.464
            11.156         48.992        14.802
            -2.604          4.408        26.827

Paramagnetic contribution to the shielding tensor (ppm): 
            -6.062        -17.391       -12.598
           -15.487        -21.199       -11.149
             1.524         -3.271         1.779

Total shielding tensor (ppm): 
            36.678         -5.676        -7.134
            -4.331         27.793         3.654
            -1.080          1.136        28.605


 Diagonalized sT*s matrix:
 
 sDSO            47.479           35.311           35.769  iso=      39.520
 sPSO           -22.093           -8.354            4.964  iso=      -8.494
        ---------------  ---------------  ---------------
 Total           25.385           26.958           40.733  iso=      31.025

 --------------
 Nucleus  14H :
 --------------

Diamagnetic contribution to the shielding tensor (ppm) : 
            31.654         -3.884        -0.359
            -1.498         30.338        -5.445
            13.375          9.407        50.312

Paramagnetic contribution to the shielding tensor (ppm): 
            -4.075         -2.536         2.720
             0.671          7.638         2.892
           -11.702        -14.980       -23.006

Total shielding tensor (ppm): 
            27.579         -6.420         2.360
            -0.826         37.977        -2.553
             1.674         -5.573        27.306


 Diagonalized sT*s matrix:
 
 sDSO            38.423           40.441           33.440  iso=      37.435
 sPSO           -13.046          -13.552            7.156  iso=      -6.481
        ---------------  ---------------  ---------------
 Total           25.376           26.890           40.595  iso=      30.954



--------------------------
CHEMICAL SHIELDING SUMMARY (ppm)
--------------------------


  Nucleus  Element    Isotropic     Anisotropy
  -------  -------  ------------   ------------
      0       C          167.821         67.634 
      1       C          185.971         58.231 
      2       C          184.719         55.767 
      3       C          185.703         57.826 
      4       H           31.042         14.498 
      5       C          167.891         67.775 
      6       C          184.538         55.537 
      7       H           30.966         14.359 
      8       C          158.140         16.037 
      9       H           30.494         15.192 
     10       H           29.690         11.486 
     11       H           29.685         11.278 
     12       H           30.459         15.277 
     13       H           31.025         14.562 
     14       H           30.954         14.462 



Timings for individual modules:

Sum of individual times         ...      680.700 sec (=  11.345 min)
GTO integral calculation        ...        0.284 sec (=   0.005 min)   0.0 %
SCF iterations                  ...      291.875 sec (=   4.865 min)  42.9 %
SCF-level EPR/NMR calculation   ...      388.542 sec (=   6.476 min)  57.1 %
                             ****ORCA TERMINATED NORMALLY****
TOTAL RUN TIME: 0 days 0 hours 11 minutes 20 seconds 816 msec
