21
	Energy:      26.0988129
C         -0.95201        0.63059       -1.08725
C          0.61481        2.58168       -0.47719
C          0.46789        1.05050       -0.61715
C          1.27508        0.77647       -1.89290
H          0.80871        0.50450        0.26561
C         -1.00052        1.13234       -2.55321
C          0.41236        1.68659       -2.76765
H          1.24651       -0.27230       -2.20703
C          0.48427        2.95281       -1.93714
H          1.61138        2.85772       -0.12137
H          0.73914        1.81596       -3.79837
H          2.31671        1.10763       -1.81503
H         -1.19254        0.29071       -3.22842
H         -1.77377        1.89070       -2.71639
H         -0.16062        3.04431        0.13283
O          0.40257        4.09113       -2.37125
C         -2.10321        1.14355       -0.23656
H         -1.00186       -0.46689       -1.09546
H         -2.20840        2.23118       -0.29266
H         -1.96367        0.86490        0.81263
H         -3.04873        0.70963       -0.57911
