20
	Energy:      27.7873367
C         -0.76961        0.36317       -1.21722
C          0.39181        2.48038       -0.56166
C          0.57327        0.96335       -0.76497
C          1.39439        0.90609       -2.05526
H          1.01101        0.45629        0.09707
C         -0.89969        0.85975       -2.66467
H         -0.73490       -0.73188       -1.19673
C          0.36695        1.71433       -2.84888
H          1.53199       -0.11197       -2.43461
C          0.29463        3.00336       -2.00521
H          1.28146        2.89857       -0.07645
H          0.60964        1.89493       -3.89818
H          2.36713        1.40202       -1.97123
H         -0.88922        0.00615       -3.35270
H         -1.82855        1.41064       -2.83514
H         -0.48023        2.72425        0.05316
H         -1.60715        0.69042       -0.59308
O         -0.87765        3.75871       -2.23744
H          1.15433        3.64688       -2.22511
H         -1.62597        3.31146       -1.80860
