
                                 *****************
                                 * O   R   C   A *
                                 *****************

           --- An Ab Initio, DFT and Semiempirical electronic structure package ---

                  #######################################################
                  #                        -***-                        #
                  #  Department of molecular theory and spectroscopy    #
                  #              Directorship: Frank Neese              #
                  # Max Planck Institute for Chemical Energy Conversion #
                  #                  D-45470 Muelheim/Ruhr              #
                  #                       Germany                       #
                  #                                                     #
                  #                  All rights reserved                #
                  #                        -***-                        #
                  #######################################################


                         Program Version 4.0.0.2 - RELEASE -


 With contributions from (in alphabetic order):
   Daniel Aravena         : Magnetic Properties
   Michael Atanasov       : Ab Initio Ligand Field Theory
   Ute Becker             : Parallelization
   Martin Brehm           : Molecular dynamics
   Dmytro Bykov           : SCF Hessian
   Vijay G. Chilkuri      : MRCI spin determinant printing
   Dipayan Datta          : RHF DLPNO-CCSD density
   Achintya Kumar Dutta   : EOM-CC, STEOM-CC
   Dmitry Ganyushin       : Spin-Orbit,Spin-Spin,Magnetic field MRCI
   Yang Guo               : DLPNO-NEVPT2, CIM, IAO-localization
   Andreas Hansen         : Spin unrestricted coupled pair/coupled cluster methods
   Lee Huntington         : MR-EOM, pCC
   Robert Izsak           : Overlap fitted RIJCOSX, COSX-SCS-MP3, EOM
   Christian Kollmar      : KDIIS, OOCD, Brueckner-CCSD(T), CCSD density
   Simone Kossmann        : Meta GGA functionals, TD-DFT gradient, OOMP2, MP2 Hessian
   Martin Krupicka        : AUTO-CI
   Dagmar Lenk            : GEPOL surface
   Dimitrios Liakos       : Extrapolation schemes; parallel MDCI
   Dimitrios Manganas     : ROCIS; embedding schemes
   Dimitrios Pantazis     : SARC Basis sets
   Taras Petrenko         : DFT Hessian,TD-DFT gradient, ASA, ECA, R-Raman, ABS, FL, XAS/XES, NRVS
   Peter Pinski           : DLPNO-MP2
   Christoph Reimann      : Effective Core Potentials
   Marius Retegan         : Local ZFS, SOC
   Christoph Riplinger    : Optimizer, TS searches, QM/MM, DLPNO-CCSD(T), (RO)-DLPNO pert. Triples
   Tobias Risthaus        : Range-separated hybrids, TD-DFT gradient, RPA, STAB
   Michael Roemelt        : Restricted open shell CIS
   Masaaki Saitow         : Open-shell DLPNO
   Barbara Sandhoefer     : DKH picture change effects
   Kantharuban Sivalingam : CASSCF convergence, NEVPT2, FIC-MRCI
   Georgi Stoychev        : AutoAux
   Boris Wezisla          : Elementary symmetry handling
   Frank Wennmohs         : Technical directorship


 We gratefully acknowledge several colleagues who have allowed us to
 interface, adapt or use parts of their codes:
   Stefan Grimme, W. Hujo, H. Kruse,             : VdW corrections, initial TS optimization,
                  C. Bannwarth                     DFT functionals, gCP, sTDA/sTD-DF
   Ed Valeev                                     : LibInt (2-el integral package), F12 methods
   Garnet Chan, S. Sharma, J. Yang, R. Olivares  : DMRG
   Ulf Ekstrom                                   : XCFun DFT Library
   Mihaly Kallay                                 : mrcc  (arbitrary order and MRCC methods)
   Jiri Pittner, Ondrej Demel                    : Mk-CCSD
   Frank Weinhold                                : gennbo (NPA and NBO analysis)
   Christopher J. Cramer and Donald G. Truhlar   : smd solvation model


 Your calculation uses the libint2 library for the computation of 2-el integrals
 For citations please refer to: http://libint.valeyev.net

 This ORCA versions uses:
   CBLAS   interface :  Fast vector & matrix operations
   LAPACKE interface :  Fast linear algebra routines
   SCALAPACK package :  Parallel linear algebra routines




*****************************************
The coordinations will be read from file: guess.xyz
*****************************************



Information: The global flag for chemical shieldings has been found
             ==>> will calculate the chemical shifts for all atoms in the system

Your calculation utilizes the basis: aug-cc-pVDZ 
    H, B-Ne : Obtained from the ccRepo (grant-hill.group.shef.ac.uk/ccrepo) Feb. 2017
              R. A. Kendall, T. H. Dunning, Jr., R. J. Harrison, J. Chem. Phys. 96, 6796 (1992)
         He : Obtained from the ccRepo (grant-hill.group.shef.ac.uk/ccrepo) Feb. 2017
              D. E. Woon, T. H. Dunning, Jr., J. Chem. Phys. 100, 2975 (1994)
  Li-Be, Na : Obtained from the ccRepo (grant-hill.group.shef.ac.uk/ccrepo) Feb. 2017
              B. P. Prascher, D. E. Woon, K. A. Peterson, T. H. Dunning, Jr., A. K. Wilson, Theor. Chem. Acc. 128, 69 (2011)
         Mg : Obtained from the Peterson Research Group Website (tyr0.chem.wsu.edu/~kipeters) Feb. 2017
              B. P. Prascher, D. E. Woon, K. A. Peterson, T. H. Dunning, Jr., A. K. Wilson, Theor. Chem. Acc. 128, 69 (2011)
      Al-Ar : Obtained from the ccRepo (grant-hill.group.shef.ac.uk/ccrepo) Feb. 2017
              D. E. Woon, T. H. Dunning, Jr., J. Chem. Phys. 98, 1358 (1993)
      Sc-Zn : Obtained from the ccRepo (grant-hill.group.shef.ac.uk/ccrepo) Feb. 2017
              N. B. Balabanov, K. A. Peterson, J. Chem. Phys. 123, 064107 (2005)
              N. B. Balabanov, K. A. Peterson, J. Chem. Phys. 125, 074110 (2006)
      Ga-Kr : Obtained from the ccRepo (grant-hill.group.shef.ac.uk/ccrepo) Feb. 2017
              A. K. Wilson, D. E. Woon, K. A. Peterson, T. H. Dunning, Jr., J. Chem. Phys. 110, 7667 (1999)

================================================================================
                                        WARNINGS
                       Please study these warnings very carefully!
================================================================================

Warning: TCutStore was < 0. Adjusted to Thresh (uncritical)

INFO   : the flag for use of LIBINT has been found!

CheckInput: checking for shifts: .

Warning: GIAO NMR calculation needs an auxiliary basis but have none
           ===>>> Using AutoAux, but it is safer for you to specify one in the input
           ===>>> Done building the auxiliary basis
           ===>>> Writing GBW file done
================================================================================
                                       INPUT FILE
================================================================================
NAME = /home/jan/SoftwareDevelopment/ORCAunleashed/output/acetone/acetone.in
|  1> !aug-cc-pVDZ B3LYP NMR
|  2> 
|  3> *xyzfile 0 1 guess.xyz
|  4> 
|  5> 
|  6>                          ****END OF INPUT****
================================================================================

                       ****************************
                       * Single Point Calculation *
                       ****************************

---------------------------------
CARTESIAN COORDINATES (ANGSTROEM)
---------------------------------
  C    -11.257270    3.613040    6.717770
  C    -11.216050    5.157860    6.948300
  H    -10.579860    3.120280    6.015910
  H    -12.269990    3.373740    6.341600
  H    -11.219800    3.069430    7.675670
  C    -10.074170    6.170000    6.610600
  H     -9.331790    5.953500    5.838090
  H     -9.551660    6.511030    7.518280
  H    -10.570820    7.093570    6.255700
  O    -12.189840    5.631450    7.520470

----------------------------
CARTESIAN COORDINATES (A.U.)
----------------------------
  NO LB      ZA    FRAG     MASS         X           Y           Z
   0 C     6.0000    0    12.011  -21.273157    6.827656   12.694746
   1 C     6.0000    0    12.011  -21.195263    9.746943   13.130384
   2 H     1.0000    0     1.008  -19.993038    5.896475   11.368422
   3 H     1.0000    0     1.008  -23.186921    6.375445   11.983887
   4 H     1.0000    0     1.008  -21.202349    5.800382   14.504914
   5 C     6.0000    0    12.011  -19.037422   11.659610   12.492224
   6 H     1.0000    0     1.008  -17.634527   11.250485   11.032391
   7 H     1.0000    0     1.008  -18.050022   12.304064   14.207490
   8 H     1.0000    0     1.008  -19.975955   13.404905   11.821560
   9 O     8.0000    0    15.999  -23.035459   10.641898   14.211629

--------------------------------
INTERNAL COORDINATES (ANGSTROEM)
--------------------------------
 C      0   0   0     0.000000000000     0.00000000     0.00000000
 C      1   0   0     1.562469840253     0.00000000     0.00000000
 H      1   2   0     1.092842250876   121.61493992     0.00000000
 H      1   2   3     1.106512610547   106.74577173   240.42332073
 H      1   2   3     1.102038222114   111.01197961   129.22439561
 C      2   1   3     1.562804723566   128.88221658   341.51847054
 H      6   2   1     1.093056272339   121.37843229    23.59344813
 H      6   2   1     1.101454104082   111.65787243   253.24614715
 H      6   2   1     1.107066744781   106.36651704   142.03130505
 O      2   1   3     1.224717502569   115.48523269   164.76341675

---------------------------
INTERNAL COORDINATES (A.U.)
---------------------------
 C      0   0   0     0.000000000000     0.00000000     0.00000000
 C      1   0   0     2.952640090590     0.00000000     0.00000000
 H      1   2   0     2.065172561734   121.61493992     0.00000000
 H      1   2   3     2.091005797664   106.74577173   240.42332073
 H      1   2   3     2.082550428909   111.01197961   129.22439561
 C      2   1   3     2.953272928338   128.88221658   341.51847054
 H      6   2   1     2.065577003686   121.37843229    23.59344813
 H      6   2   1     2.081446605799   111.65787243   253.24614715
 H      6   2   1     2.092052959608   106.36651704   142.03130505
 O      2   1   3     2.314380671276   115.48523269   164.76341675

---------------------
BASIS SET INFORMATION
---------------------
There are 3 groups of distinct atoms

 Group   1 Type C   : 18s5p2d contracted to 4s3p2d pattern {8811/311/11}
 Group   2 Type H   : 5s2p contracted to 3s2p pattern {311/11}
 Group   3 Type O   : 18s5p2d contracted to 4s3p2d pattern {8811/311/11}

Atom   0C    basis set group =>   1
Atom   1C    basis set group =>   1
Atom   2H    basis set group =>   2
Atom   3H    basis set group =>   2
Atom   4H    basis set group =>   2
Atom   5C    basis set group =>   1
Atom   6H    basis set group =>   2
Atom   7H    basis set group =>   2
Atom   8H    basis set group =>   2
Atom   9O    basis set group =>   3

INFORMATION: There is an auxiliary basis set but the global RI flag is NOT set

-------------------------------
AUXILIARY BASIS SET INFORMATION
-------------------------------
There are 3 groups of distinct atoms

 Group   1 Type C   : 18s15p14d5f contracted to 18s15p14d5f pattern {111111111111111111/111111111111111/11111111111111/11111}
 Group   2 Type H   : 12s5p4d contracted to 12s5p4d pattern {111111111111/11111/1111}
 Group   3 Type O   : 18s15p14d5f contracted to 18s15p14d5f pattern {111111111111111111/111111111111111/11111111111111/11111}

Atom   0C    basis set group =>   1
Atom   1C    basis set group =>   1
Atom   2H    basis set group =>   2
Atom   3H    basis set group =>   2
Atom   4H    basis set group =>   2
Atom   5C    basis set group =>   1
Atom   6H    basis set group =>   2
Atom   7H    basis set group =>   2
Atom   8H    basis set group =>   2
Atom   9O    basis set group =>   3

Checking for AutoStart:
The File: /home/jan/SoftwareDevelopment/ORCAunleashed/output/acetone/acetone.gbw exists
Trying to determine its content:
     ... Fine, the file contains calculation information
     ... Fine, the calculation information was read
     ... Fine, the file contains a basis set
     ... Fine, the basis set was read
     ... Fine, the file contains a geometry
     ... Fine, the geometry was read
     ... The file does not contain orbitals - skipping AutoStart
------------------------------------------------------------------------------
                           ORCA GTO INTEGRAL CALCULATION
------------------------------------------------------------------------------

                         BASIS SET STATISTICS AND STARTUP INFO

 # of primitive gaussian shells          ...  142
 # of primitive gaussian functions       ...  238
 # of contracted shells                  ...   66
 # of contracted basis functions         ...  146
 Highest angular momentum                ...    2
 Maximum contraction depth               ...    8
 Integral package used                   ... LIBINT
 Integral threshhold            Thresh   ...  1.000e-10
 Primitive cut-off              TCut     ...  1.000e-11


------------------------------ INTEGRAL EVALUATION ----------------------------


 * One electron integrals 
 Pre-screening matrix                    ... done
 Shell pair data                         ... done (   0.002 sec)

-------------------------------------------------------------------------------
                                 ORCA SCF
-------------------------------------------------------------------------------

------------
SCF SETTINGS
------------
Hamiltonian:
 Density Functional     Method          .... DFT(GTOs)
 Exchange Functional    Exchange        .... B88
   X-Alpha parameter    XAlpha          ....  0.666667
   Becke's b parameter  XBeta           ....  0.004200
 Correlation Functional Correlation     .... LYP
 LDA part of GGA corr.  LDAOpt          .... VWN-5
 Gradients option       PostSCFGGA      .... off
 Hybrid DFT is turned on
   Fraction HF Exchange ScalHFX         ....  0.200000
   Scaling of DF-GGA-X  ScalDFX         ....  0.720000
   Scaling of DF-GGA-C  ScalDFC         ....  0.810000
   Scaling of DF-LDA-C  ScalLDAC        ....  1.000000
   Perturbative correction              ....  0.000000
   NL short-range parameter             ....  4.800000


General Settings:
 Integral files         IntName         .... /home/jan/SoftwareDevelopment/ORCAunleashed/output/acetone/acetone
 Hartree-Fock type      HFTyp           .... RHF
 Total Charge           Charge          ....    0
 Multiplicity           Mult            ....    1
 Number of Electrons    NEL             ....   32
 Basis Dimension        Dim             ....  146
 Nuclear Repulsion      ENuc            ....    116.8215848902 Eh

Convergence Acceleration:
 DIIS                   CNVDIIS         .... on
   Start iteration      DIISMaxIt       ....    12
   Startup error        DIISStart       ....  0.200000
   # of expansion vecs  DIISMaxEq       ....     5
   Bias factor          DIISBfac        ....   1.050
   Max. coefficient     DIISMaxC        ....  10.000
 Newton-Raphson         CNVNR           .... off
 SOSCF                  CNVSOSCF        .... on
   Start iteration      SOSCFMaxIt      ....   150
   Startup grad/error   SOSCFStart      ....  0.003300
 Level Shifting         CNVShift        .... on
   Level shift para.    LevelShift      ....    0.2500
   Turn off err/grad.   ShiftErr        ....    0.0010
 Zerner damping         CNVZerner       .... off
 Static damping         CNVDamp         .... on
   Fraction old density DampFac         ....    0.7000
   Max. Damping (<1)    DampMax         ....    0.9800
   Min. Damping (>=0)   DampMin         ....    0.0000
   Turn off err/grad.   DampErr         ....    0.1000
 Fernandez-Rico         CNVRico         .... off

SCF Procedure:
 Maximum # iterations   MaxIter         ....   125
 SCF integral mode      SCFMode         .... Direct
   Integral package                     .... LIBINT
 Reset frequeny         DirectResetFreq ....    20
 Integral Threshold     Thresh          ....  1.000e-10 Eh
 Primitive CutOff       TCut            ....  1.000e-11 Eh

Convergence Tolerance:
 Convergence Check Mode ConvCheckMode   .... Total+1el-Energy
 Convergence forced     ConvForced      .... 0
 Energy Change          TolE            ....  1.000e-06 Eh
 1-El. energy change                    ....  1.000e-03 Eh
 Orbital Gradient       TolG            ....  5.000e-05
 Orbital Rotation angle TolX            ....  5.000e-05
 DIIS Error             TolErr          ....  1.000e-06


Diagonalization of the overlap matrix:
Smallest eigenvalue                        ... 1.976e-03
Time for diagonalization                   ...    0.003 sec
Threshold for overlap eigenvalues          ... 1.000e-08
Number of eigenvalues below threshold      ... 0
Time for construction of square roots      ...    0.001 sec
Total time needed                          ...    0.003 sec

-------------------
DFT GRID GENERATION
-------------------

General Integration Accuracy     IntAcc      ...  4.340
Radial Grid Type                 RadialGrid  ... Gauss-Chebyshev
Angular Grid (max. acc.)         AngularGrid ... Lebedev-110
Angular grid pruning method      GridPruning ... 3 (G Style)
Weight generation scheme         WeightScheme... Becke
Basis function cutoff            BFCut       ...    1.0000e-10
Integration weight cutoff        WCut        ...    1.0000e-14
Grids for H and He will be reduced by one unit

# of grid points (after initial pruning)     ...  11448 (   0.0 sec)
# of grid points (after weights+screening)   ...  10937 (   0.0 sec)
nearest neighbour list constructed           ...    0.0 sec
Grid point re-assignment to atoms done       ...    0.0 sec
Grid point division into batches done        ...    0.0 sec
Reduced shell lists constructed in    0.2 sec

Total number of grid points                  ...    10937
Total number of batches                      ...      178
Average number of points per batch           ...       61
Average number of grid points per atom       ...     1094
Average number of shells per batch           ...    59.99 (90.89%)
Average number of basis functions per batch  ...   131.89 (90.33%)
Average number of large shells per batch     ...    52.35 (87.26%)
Average number of large basis fcns per batch ...   116.27 (88.16%)
Maximum spatial batch extension              ...  19.57, 20.05, 20.46 au
Average spatial batch extension              ...   4.22,  4.21,  4.27 au

Time for grid setup =    0.208 sec

------------------------------
INITIAL GUESS: MODEL POTENTIAL
------------------------------
Loading Hartree-Fock densities                     ... done
Calculating cut-offs                               ... done
Setting up the integral package                    ... done
Initializing the effective Hamiltonian             ... done
Starting the Coulomb interaction                   ... done (   0.1 sec)
Reading the grid                                   ... done
Mapping shells                                     ... done
Starting the XC term evaluation                    ... done (   0.3 sec)
  promolecular density results
     # of electrons  =     31.993298382
     EX              =    -25.331503557
     EC              =     -1.045310717
     EX+EC           =    -26.376814274
Transforming the Hamiltonian                       ... done (   0.0 sec)
Diagonalizing the Hamiltonian                      ... done (   0.0 sec)
Back transforming the eigenvectors                 ... done (   0.0 sec)
Now organizing SCF variables                       ... done
                      ------------------
                      INITIAL GUESS DONE (   0.7 sec)
                      ------------------
--------------
SCF ITERATIONS
--------------
ITER       Energy         Delta-E        Max-DP      RMS-DP      [F,P]     Damp
               ***  Starting incremental Fock matrix formation  ***
  0   -192.8729074986   0.000000000000 3.00546148  0.03310788  8.7664071 0.7000
  1   -192.9591742226  -0.086266723985 1.66762428  0.01696191  5.3374148 0.7000
  2   -192.9883229515  -0.029148728878 0.43056385  0.00419058  2.6456129 0.7000
  3   -193.0061697859  -0.017846834476 0.12220465  0.00167750  1.2027430 0.7000
                      *** Initiating the SOSCF procedure ***
                      *** Re-Reading the Fockian *** 
                      *** Removing any level shift *** 
ITER      Energy       Delta-E        Grad      Rot      Max-DP    RMS-DP
  4   -193.01905269  -0.0128829037  0.002922  0.002922  0.276644  0.003350
               *** Restarting incremental Fock matrix formation ***
  5   -193.04871177  -0.0296590796  0.006318  0.020446  0.877468  0.008686
  6   -193.04719722   0.0015145467  0.015945  0.015919  0.643600  0.006419
  7   -193.04915728  -0.0019600615  0.000604  0.001097  0.053892  0.000700
  8   -193.04915190   0.0000053832  0.000647  0.000559  0.025047  0.000343
  9   -193.04917416  -0.0000222576  0.000023  0.000035  0.000690  0.000012
                 **** Energy Check signals convergence ****
              ***Rediagonalizing the Fockian in SOSCF/NRSCF***

               *****************************************************
               *                     SUCCESS                       *
               *           SCF CONVERGED AFTER  10 CYCLES          *
               *****************************************************

Setting up the final grid:

General Integration Accuracy     IntAcc      ...  4.670
Radial Grid Type                 RadialGrid  ... Gauss-Chebyshev
Angular Grid (max. acc.)         AngularGrid ... Lebedev-302
Angular grid pruning method      GridPruning ... 3 (G Style)
Weight generation scheme         WeightScheme... Becke
Basis function cutoff            BFCut       ...    1.0000e-10
Integration weight cutoff        WCut        ...    1.0000e-14
Grids for H and He will be reduced by one unit

# of grid points (after initial pruning)     ...  45212 (   0.0 sec)
# of grid points (after weights+screening)   ...  42806 (   0.0 sec)
nearest neighbour list constructed           ...    0.0 sec
Grid point re-assignment to atoms done       ...    0.0 sec
Grid point division into batches done        ...    0.1 sec
Reduced shell lists constructed in    0.8 sec

Total number of grid points                  ...    42806
Total number of batches                      ...      675
Average number of points per batch           ...       63
Average number of grid points per atom       ...     4281
Average number of shells per batch           ...    56.95 (86.29%)
Average number of basis functions per batch  ...   124.94 (85.58%)
Average number of large shells per batch     ...    48.89 (85.84%)
Average number of large basis fcns per batch ...   107.97 (86.42%)
Maximum spatial batch extension              ...  17.38, 17.88, 16.58 au
Average spatial batch extension              ...   2.80,  2.83,  2.78 au

Final grid set up in    0.9 sec
Final integration                            ... done (   1.0 sec)
Change in XC energy                          ...    -0.000119131
Integrated number of electrons               ...    31.999992060
Previous integrated no of electrons          ...    31.999484378

----------------
TOTAL SCF ENERGY
----------------

Total Energy       :         -193.04929330 Eh           -5253.13834 eV

Components:
Nuclear Repulsion  :          116.82158489 Eh            3178.87694 eV
Electronic Energy  :         -309.87087819 Eh           -8432.01527 eV
One Electron Energy:         -492.08984196 Eh          -13390.44536 eV
Two Electron Energy:          182.21896377 Eh            4958.43009 eV

Virial components:
Potential Energy   :         -384.69519797 Eh          -10468.08852 eV
Kinetic Energy     :          191.64590467 Eh            5214.95019 eV
Virial Ratio       :            2.00732282


DFT components:
N(Alpha)           :       15.999996030227 electrons
N(Beta)            :       15.999996030227 electrons
N(Total)           :       31.999992060453 electrons
E(X)               :      -20.497734654899 Eh       
E(C)               :       -1.242675024148 Eh       
E(XC)              :      -21.740409679047 Eh       

---------------
SCF CONVERGENCE
---------------

  Last Energy change         ...   -1.0911e-08  Tolerance :   1.0000e-06
  Last MAX-Density change    ...    4.1345e-04  Tolerance :   1.0000e-05
  Last RMS-Density change    ...    5.8010e-06  Tolerance :   1.0000e-06
  Last Orbital Gradient      ...    1.3138e-05  Tolerance :   5.0000e-05
  Last Orbital Rotation      ...    1.3261e-05  Tolerance :   5.0000e-05

             **** THE GBW FILE WAS UPDATED (/home/jan/SoftwareDevelopment/ORCAunleashed/output/acetone/acetone.gbw) ****
             **** DENSITY FILE WAS UPDATED (/home/jan/SoftwareDevelopment/ORCAunleashed/output/acetone/acetone.scfp.tmp) ****
             **** ENERGY FILE WAS UPDATED (/home/jan/SoftwareDevelopment/ORCAunleashed/output/acetone/acetone.en.tmp) ****
----------------
ORBITAL ENERGIES
----------------

  NO   OCC          E(Eh)            E(eV) 
   0   2.0000     -19.139739      -520.8188 
   1   2.0000     -10.291827      -280.0549 
   2   2.0000     -10.198183      -277.5067 
   3   2.0000     -10.197960      -277.5006 
   4   2.0000      -1.045771       -28.4569 
   5   2.0000      -0.748824       -20.3765 
   6   2.0000      -0.717203       -19.5161 
   7   2.0000      -0.543591       -14.7919 
   8   2.0000      -0.467946       -12.7334 
   9   2.0000      -0.450890       -12.2693 
  10   2.0000      -0.442105       -12.0303 
  11   2.0000      -0.405669       -11.0388 
  12   2.0000      -0.396610       -10.7923 
  13   2.0000      -0.377328       -10.2676 
  14   2.0000      -0.345540        -9.4026 
  15   2.0000      -0.257052        -6.9947 
  16   0.0000      -0.037633        -1.0241 
  17   0.0000      -0.012691        -0.3453 
  18   0.0000       0.007659         0.2084 
  19   0.0000       0.020979         0.5709 
  20   0.0000       0.027117         0.7379 
  21   0.0000       0.040911         1.1133 
  22   0.0000       0.042807         1.1648 
  23   0.0000       0.046844         1.2747 
  24   0.0000       0.078090         2.1249 
  25   0.0000       0.084469         2.2985 
  26   0.0000       0.099468         2.7067 
  27   0.0000       0.100622         2.7381 
  28   0.0000       0.102180         2.7805 
  29   0.0000       0.111129         3.0240 
  30   0.0000       0.121339         3.3018 
  31   0.0000       0.124964         3.4004 
  32   0.0000       0.128035         3.4840 
  33   0.0000       0.131221         3.5707 
  34   0.0000       0.150512         4.0956 
  35   0.0000       0.157666         4.2903 
  36   0.0000       0.162794         4.4299 
  37   0.0000       0.172755         4.7009 
  38   0.0000       0.195745         5.3265 
  39   0.0000       0.199207         5.4207 
  40   0.0000       0.228650         6.2219 
  41   0.0000       0.236190         6.4271 
  42   0.0000       0.243247         6.6191 
  43   0.0000       0.251348         6.8395 
  44   0.0000       0.274830         7.4785 
  45   0.0000       0.302218         8.2238 
  46   0.0000       0.303712         8.2644 
  47   0.0000       0.324504         8.8302 
  48   0.0000       0.332521         9.0483 
  49   0.0000       0.338843         9.2204 
  50   0.0000       0.354000         9.6328 
  51   0.0000       0.365156         9.9364 
  52   0.0000       0.381744        10.3878 
  53   0.0000       0.384068        10.4510 
  54   0.0000       0.390042        10.6136 
  55   0.0000       0.394846        10.7443 
  56   0.0000       0.416511        11.3338 
  57   0.0000       0.422721        11.5028 
  58   0.0000       0.427897        11.6437 
  59   0.0000       0.432972        11.7818 
  60   0.0000       0.451253        12.2792 
  61   0.0000       0.458253        12.4697 
  62   0.0000       0.480691        13.0803 
  63   0.0000       0.481328        13.0976 
  64   0.0000       0.491481        13.3739 
  65   0.0000       0.499966        13.6048 
  66   0.0000       0.533426        14.5153 
  67   0.0000       0.551510        15.0073 
  68   0.0000       0.556152        15.1337 
  69   0.0000       0.563145        15.3240 
  70   0.0000       0.579174        15.7601 
  71   0.0000       0.605360        16.4727 
  72   0.0000       0.608456        16.5569 
  73   0.0000       0.627986        17.0884 
  74   0.0000       0.652741        17.7620 
  75   0.0000       0.659902        17.9568 
  76   0.0000       0.685674        18.6581 
  77   0.0000       0.715716        19.4756 
  78   0.0000       0.728166        19.8144 
  79   0.0000       0.778536        21.1850 
  80   0.0000       0.791334        21.5333 
  81   0.0000       0.818464        22.2715 
  82   0.0000       0.827185        22.5089 
  83   0.0000       0.891722        24.2650 
  84   0.0000       0.893464        24.3124 
  85   0.0000       0.910760        24.7830 
  86   0.0000       0.929444        25.2915 
  87   0.0000       0.940971        25.6051 
  88   0.0000       0.967837        26.3362 
  89   0.0000       1.028151        27.9774 
  90   0.0000       1.047943        28.5160 
  91   0.0000       1.101104        29.9626 
  92   0.0000       1.120268        30.4840 
  93   0.0000       1.131311        30.7845 
  94   0.0000       1.151796        31.3420 
  95   0.0000       1.196363        32.5547 
  96   0.0000       1.207186        32.8492 
  97   0.0000       1.248753        33.9803 
  98   0.0000       1.287872        35.0448 
  99   0.0000       1.294603        35.2279 
 100   0.0000       1.387881        37.7662 
 101   0.0000       1.453676        39.5565 
 102   0.0000       1.471357        40.0377 
 103   0.0000       1.517710        41.2990 
 104   0.0000       1.549885        42.1745 
 105   0.0000       1.561129        42.4805 
 106   0.0000       1.588027        43.2124 
 107   0.0000       1.639175        44.6042 
 108   0.0000       1.649086        44.8739 
 109   0.0000       1.662277        45.2328 
 110   0.0000       1.681734        45.7623 
 111   0.0000       1.759036        47.8658 
 112   0.0000       1.774167        48.2775 
 113   0.0000       1.787762        48.6475 
 114   0.0000       1.793749        48.8104 
 115   0.0000       1.856877        50.5282 
 116   0.0000       1.870617        50.9021 
 117   0.0000       1.906649        51.8826 
 118   0.0000       1.922390        52.3109 
 119   0.0000       1.960543        53.3491 
 120   0.0000       1.978236        53.8305 
 121   0.0000       2.003614        54.5211 
 122   0.0000       2.020163        54.9714 
 123   0.0000       2.049631        55.7733 
 124   0.0000       2.090643        56.8893 
 125   0.0000       2.124184        57.8020 
 126   0.0000       2.225982        60.5721 
 127   0.0000       2.250213        61.2314 
 128   0.0000       2.273008        61.8517 
 129   0.0000       2.338615        63.6369 
 130   0.0000       2.371763        64.5389 
 131   0.0000       2.423634        65.9504 
 132   0.0000       2.441908        66.4477 
 133   0.0000       2.493265        67.8452 
 134   0.0000       2.518773        68.5393 
 135   0.0000       2.579568        70.1936 
 136   0.0000       2.584382        70.3246 
 137   0.0000       2.645599        71.9904 
 138   0.0000       2.717479        73.9464 
 139   0.0000       2.798950        76.1633 
 140   0.0000       3.017486        82.1100 
 141   0.0000       3.396953        92.4358 
 142   0.0000       3.401478        92.5589 
 143   0.0000       3.474376        94.5426 
 144   0.0000       3.549478        96.5862 
 145   0.0000       3.680458       100.1504 

                    ********************************
                    * MULLIKEN POPULATION ANALYSIS *
                    ********************************

-----------------------
MULLIKEN ATOMIC CHARGES
-----------------------
   0 C :    0.832413
   1 C :    0.424625
   2 H :   -0.321266
   3 H :   -0.255428
   4 H :   -0.166977
   5 C :    0.812247
   6 H :   -0.319337
   7 H :   -0.183479
   8 H :   -0.224482
   9 O :   -0.598315
Sum of atomic charges:   -0.0000000

--------------------------------
MULLIKEN REDUCED ORBITAL CHARGES
--------------------------------
  0 C s       :    70.828589  s :    70.828589
      pz      :     2.490083  p :     7.355993
      px      :     2.550182
      py      :     2.315728
      dz2     :    -0.020431  d :    -0.110062
      dxz     :    -0.024701
      dyz     :    -0.013565
      dx2y2   :    -0.030035
      dxy     :    -0.021330
  1 C s       :    71.014262  s :    71.014262
      pz      :     2.043166  p :     6.902238
      px      :     2.552458
      py      :     2.306614
      dz2     :     0.012491  d :     0.243322
      dxz     :     0.030042
      dyz     :     0.039445
      dx2y2   :     0.082495
      dxy     :     0.078849
  2 H s       :     0.511554  s :     0.511554
      pz      :    -0.018692  p :    -0.028888
      px      :    -0.009498
      py      :    -0.000698
  3 H s       :     0.673072  s :     0.673072
      pz      :     0.012404  p :     0.026611
      px      :     0.007648
      py      :     0.006560
  4 H s       :     0.648503  s :     0.648503
      pz      :    -0.001580  p :     0.009340
      px      :     0.001574
      py      :     0.009347
  5 C s       :    70.829061  s :    70.829061
      pz      :     2.453551  p :     7.383722
      px      :     2.419601
      py      :     2.510571
      dz2     :    -0.023415  d :    -0.110975
      dxz     :    -0.028094
      dyz     :    -0.010829
      dx2y2   :    -0.020293
      dxy     :    -0.028343
  6 H s       :     0.510087  s :     0.510087
      pz      :    -0.025329  p :    -0.031312
      px      :    -0.018976
      py      :     0.012993
  7 H s       :     0.637261  s :     0.637261
      pz      :    -0.006648  p :     0.004821
      px      :     0.004533
      py      :     0.006936
  8 H s       :     0.691564  s :     0.691564
      pz      :     0.011881  p :     0.032249
      px      :     0.015334
      py      :     0.005034
  9 O s       :   175.216520  s :   175.216520
      pz      :    18.014969  p :    63.336387
      px      :    20.298283
      py      :    25.023135
      dz2     :     0.014679  d :     0.074846
      dxz     :     0.019131
      dyz     :     0.007338
      dx2y2   :     0.016692
      dxy     :     0.017005


                     *******************************
                     * LOEWDIN POPULATION ANALYSIS *
                     *******************************

----------------------
LOEWDIN ATOMIC CHARGES
----------------------
   0 C :   -0.406542
   1 C :   -1.250140
   2 H :    0.232660
   3 H :    0.280281
   4 H :    0.278058
   5 C :   -0.404392
   6 H :    0.234166
   7 H :    0.276190
   8 H :    0.280429
   9 O :    0.479290

-------------------------------
LOEWDIN REDUCED ORBITAL CHARGES
-------------------------------
  0 C s       :     2.317495  s :     2.317495
      pz      :     1.113129  p :     3.315289
      px      :     1.104124
      py      :     1.098037
      dz2     :     0.107700  d :     0.773758
      dxz     :     0.103650
      dyz     :     0.196476
      dx2y2   :     0.206929
      dxy     :     0.159003
  1 C s       :     2.239939  s :     2.239939
      pz      :     0.659814  p :     2.783665
      px      :     0.970286
      py      :     1.153565
      dz2     :     0.238421  d :     2.226536
      dxz     :     0.345420
      dyz     :     0.352346
      dx2y2   :     0.646421
      dxy     :     0.643928
  2 H s       :     0.434596  s :     0.434596
      pz      :     0.125353  p :     0.332744
      px      :     0.122676
      py      :     0.084715
  3 H s       :     0.405066  s :     0.405066
      pz      :     0.079806  p :     0.314653
      px      :     0.177081
      py      :     0.057765
  4 H s       :     0.408114  s :     0.408114
      pz      :     0.169551  p :     0.313828
      px      :     0.068817
      py      :     0.075460
  5 C s       :     2.318308  s :     2.318308
      pz      :     1.114886  p :     3.313901
      px      :     1.134782
      py      :     1.064233
      dz2     :     0.099843  d :     0.772183
      dxz     :     0.227210
      dyz     :     0.093891
      dx2y2   :     0.153626
      dxy     :     0.197613
  6 H s       :     0.433077  s :     0.433077
      pz      :     0.133951  p :     0.332757
      px      :     0.120943
      py      :     0.077863
  7 H s       :     0.408995  s :     0.408995
      pz      :     0.161718  p :     0.314815
      px      :     0.083105
      py      :     0.069992
  8 H s       :     0.404865  s :     0.404865
      pz      :     0.077105  p :     0.314705
      px      :     0.096332
      py      :     0.141268
  9 O s       :     2.921997  s :     2.921997
      pz      :     1.285433  p :     4.379539
      px      :     1.537462
      py      :     1.556644
      dz2     :     0.028056  d :     0.219174
      dxz     :     0.066705
      dyz     :     0.023835
      dx2y2   :     0.046063
      dxy     :     0.054515


                      *****************************
                      * MAYER POPULATION ANALYSIS *
                      *****************************

  NA   - Mulliken gross atomic population
  ZA   - Total nuclear charge
  QA   - Mulliken gross atomic charge
  VA   - Mayer's total valence
  BVA  - Mayer's bonded valence
  FA   - Mayer's free valence

  ATOM       NA         ZA         QA         VA         BVA        FA
  0 C      5.1676     6.0000     0.8324     3.4873     3.4873    -0.0000
  1 C      5.5754     6.0000     0.4246     3.4614     3.4614     0.0000
  2 H      1.3213     1.0000    -0.3213     0.6785     0.6785     0.0000
  3 H      1.2554     1.0000    -0.2554     0.9475     0.9475    -0.0000
  4 H      1.1670     1.0000    -0.1670     0.8916     0.8916    -0.0000
  5 C      5.1878     6.0000     0.8122     3.5049     3.5049     0.0000
  6 H      1.3193     1.0000    -0.3193     0.6760     0.6760     0.0000
  7 H      1.1835     1.0000    -0.1835     0.8696     0.8696     0.0000
  8 H      1.2245     1.0000    -0.2245     0.9795     0.9795     0.0000
  9 O      8.5983     8.0000    -0.5983     1.7150     1.7150    -0.0000

  Mayer bond orders larger than 0.1
B(  0-C ,  1-C ) :   0.8508 B(  0-C ,  2-H ) :   0.9253 B(  0-C ,  3-H ) :   0.8865 
B(  0-C ,  4-H ) :   0.8605 B(  1-C ,  4-H ) :   0.1006 B(  1-C ,  5-C ) :   0.8656 
B(  1-C ,  9-O ) :   1.5831 B(  5-C ,  6-H ) :   0.9267 B(  5-C ,  7-H ) :   0.8535 
B(  5-C ,  8-H ) :   0.8938 B(  6-H ,  7-H ) :  -0.1060 

-------
TIMINGS
-------

Total SCF time: 0 days 0 hours 0 min 49 sec 

Total time                  ....      49.371 sec
Sum of individual times     ....      49.350 sec  (100.0%)

Fock matrix formation       ....      47.752 sec  ( 96.7%)
  XC integration            ....       4.094 sec  (  8.6% of F)
    Basis function eval.    ....       2.247 sec  ( 54.9% of XC)
    Density eval.           ....       0.449 sec  ( 11.0% of XC)
    XC-Functional eval.     ....       0.125 sec  (  3.0% of XC)
    XC-Potential eval.      ....       1.231 sec  ( 30.1% of XC)
Diagonalization             ....       0.016 sec  (  0.0%)
Density matrix formation    ....       0.002 sec  (  0.0%)
Population analysis         ....       0.005 sec  (  0.0%)
Initial guess               ....       0.493 sec  (  1.0%)
Orbital Transformation      ....       0.000 sec  (  0.0%)
Orbital Orthonormalization  ....       0.000 sec  (  0.0%)
DIIS solution               ....       0.003 sec  (  0.0%)
SOSCF solution              ....       0.010 sec  (  0.0%)
Grid generation             ....       1.069 sec  (  2.2%)

-------------------------   --------------------
FINAL SINGLE POINT ENERGY      -193.049293300544
-------------------------   --------------------


                            ***************************************
                            *     ORCA property calculations      *
                            ***************************************

                                    ---------------------
                                    Active property flags
                                    ---------------------
   (+) Dipole Moment
   (+) Chemical Shifts


------------------------------------------------------------------------------
                       ORCA ELECTRIC PROPERTIES CALCULATION
------------------------------------------------------------------------------

Dipole Moment Calculation                       ... on
Quadrupole Moment Calculation                   ... off
Polarizability Calculation                      ... off
GBWName                                         ... /home/jan/SoftwareDevelopment/ORCAunleashed/output/acetone/acetone.gbw
Electron density file                           ... /home/jan/SoftwareDevelopment/ORCAunleashed/output/acetone/acetone.scfp.tmp

-------------
DIPOLE MOMENT
-------------
                                X             Y             Z
Electronic contribution:     -2.52326       1.22085       1.44475
Nuclear contribution   :      3.38454      -1.64148      -1.93575
                        -----------------------------------------
Total Dipole Moment    :      0.86129      -0.42063      -0.49101
                        -----------------------------------------
Magnitude (a.u.)       :      1.07696
Magnitude (Debye)      :      2.73741

------------------------------------------------------------------------------
                                ORCA EPR/NMR CALCULATION
------------------------------------------------------------------------------

GBWName                      ... /home/jan/SoftwareDevelopment/ORCAunleashed/output/acetone/acetone.gbw
Electron density file        ... /home/jan/SoftwareDevelopment/ORCAunleashed/output/acetone/acetone.scfp.tmp
Spin density file            ... /home/jan/SoftwareDevelopment/ORCAunleashed/output/acetone/acetone.scfr.tmp
Treatment of gauge           ... GIAO (approximations 1/2el = 0,3)
Details of the CP(SCF) procedure:
       Solver   = POPLE   
       MaxIter  =    64   
       Tolerance=    1.000e-06
       Op-0     =   0- 15 =>  16-145
Multiplicity                 ... 1
g-tensor                     ... 0
NMR chemical shifts          ... 1
Number of nuclei for epr/nmr ... 10
   Nucleus:   0C 
       Hyperfine : Isotope=   13 I=   0.500 P= 134.188
       Quadrupole: Isotope=   13 I=   0.500 Q=   0.000
       Spin-Orbit: Zeff=   3.600
       rho(0)=N f(grad)=N a(iso)=N a(dip)=N a(orb)=N sigma(nmr)=Y
   Nucleus:   1C 
       Hyperfine : Isotope=   13 I=   0.500 P= 134.188
       Quadrupole: Isotope=   13 I=   0.500 Q=   0.000
       Spin-Orbit: Zeff=   3.600
       rho(0)=N f(grad)=N a(iso)=N a(dip)=N a(orb)=N sigma(nmr)=Y
   Nucleus:   2H 
       Hyperfine : Isotope=    1 I=   0.500 P= 533.552
       Quadrupole: Isotope=    2 I=   1.000 Q=   0.003
       Spin-Orbit: Zeff=   1.000
       rho(0)=N f(grad)=N a(iso)=N a(dip)=N a(orb)=N sigma(nmr)=Y
   Nucleus:   3H 
       Hyperfine : Isotope=    1 I=   0.500 P= 533.552
       Quadrupole: Isotope=    2 I=   1.000 Q=   0.003
       Spin-Orbit: Zeff=   1.000
       rho(0)=N f(grad)=N a(iso)=N a(dip)=N a(orb)=N sigma(nmr)=Y
   Nucleus:   4H 
       Hyperfine : Isotope=    1 I=   0.500 P= 533.552
       Quadrupole: Isotope=    2 I=   1.000 Q=   0.003
       Spin-Orbit: Zeff=   1.000
       rho(0)=N f(grad)=N a(iso)=N a(dip)=N a(orb)=N sigma(nmr)=Y
   Nucleus:   5C 
       Hyperfine : Isotope=   13 I=   0.500 P= 134.188
       Quadrupole: Isotope=   13 I=   0.500 Q=   0.000
       Spin-Orbit: Zeff=   3.600
       rho(0)=N f(grad)=N a(iso)=N a(dip)=N a(orb)=N sigma(nmr)=Y
   Nucleus:   6H 
       Hyperfine : Isotope=    1 I=   0.500 P= 533.552
       Quadrupole: Isotope=    2 I=   1.000 Q=   0.003
       Spin-Orbit: Zeff=   1.000
       rho(0)=N f(grad)=N a(iso)=N a(dip)=N a(orb)=N sigma(nmr)=Y
   Nucleus:   7H 
       Hyperfine : Isotope=    1 I=   0.500 P= 533.552
       Quadrupole: Isotope=    2 I=   1.000 Q=   0.003
       Spin-Orbit: Zeff=   1.000
       rho(0)=N f(grad)=N a(iso)=N a(dip)=N a(orb)=N sigma(nmr)=Y
   Nucleus:   8H 
       Hyperfine : Isotope=    1 I=   0.500 P= 533.552
       Quadrupole: Isotope=    2 I=   1.000 Q=   0.003
       Spin-Orbit: Zeff=   1.000
       rho(0)=N f(grad)=N a(iso)=N a(dip)=N a(orb)=N sigma(nmr)=Y
   Nucleus:   9O 
       Hyperfine : Isotope=   17 I=   2.500 P= -72.357
       Quadrupole: Isotope=   17 I=   2.500 Q=  -0.026
       Spin-Orbit: Zeff=   5.600
       rho(0)=N f(grad)=N a(iso)=N a(dip)=N a(orb)=N sigma(nmr)=Y
Using LibInt in CPSCF-CP

Forming RHS of the CP-SCF equations         ... 
Calculating right hand sides for GIAO treatment (new)  ... 
  Entering RightHandSide GIAO. ScalHFX=    0.2000 NeedHFX=1
     -> 1-electron GIAO integrals will be done analytically
     -> SCF done analytically but RIJK requested in GIAOs
     -> using RIJK
     Making grid for GIAO integrations   ... done
     Test of existence of the V matrix   = 0
     Test of existence of the VCD matrix = 0
     Test of existence of the VO matrix  = 0
     Warning: RI is turned on for GIAO but the V matrix or its Cholesky decomposition are not found - making it
     Calculating V           ... done
     Cholesky decomposition  ... done
     Storing V and VCD       ... done
     Cholesky decomposition-2... done
     Storing VO              ... done
  Getting the pre-screening matrix        ... done
  Extracting occupied and virtual blocks  ... 
  Operator  0  NO=  16 NV= 130 
  One-electron GIAO integrals             ...   done
  Transforming and RHS contribution       ...   done
  Projecting overlap derivatives          ...   done
  Building G(dS/dB_ij)                    ...   done
  Transforming to MO basis/RHS contribs.  ...   done
  Calculating F[B](P)                     ...  (RI-JK)
---------------------
RI-GIAO-TRANSFORMATION (AUX index driven)
----------------------

Dimension of the orbital-basis         ... 146
Dimension of the aux-basis             ... 954
Number of (i,a) MOs                    ... 16,130
Number of ij,ia,ab pairs               ... 256,2080,16900
Transformation of internal MOs         ...    0-  15
Transformation of internal/external MOs...    0-  15 to   16- 145

Mapping shells                                 ... done
Making shell addresses                         ... done
Figuring out significant basis function pairs  ... done
  N(Pairs)         ... 10731
  N(Strong pairs)  ... 10731
  Mem-Available    ... 1024 MB
  (p,q) per batch  ... 17583
  N(Batches)       ... 1
Preparing matrix containers                    ... done
Preparing AO buffer                            ... done
Calculating AO integrals and transforming AUX  ... done
Finished RI-GIAO integral generation and aux-index transformation in  4.126 sec
Mapping the MO pairs                            ... done
Getting memory                                  ... done
Second Phase: sorting and transformation of MO indices
Memory available                       ... 1024 MB 
Max. # Aux fcns treated in a batch     ... 954    
Initializing the MO transformation process      ... done
Batch   0: Q=   0 ...  953
   Reading      ... done
   Transforming ... done
Finished transformation of the MO indices in  3.037 sec
Initializing the sorting process                ... done

IJ-Resorting
# of internal pairs                    ... 256
# batches for internal pairs           ... 1
   (0) Reading      ... done
   (0) Writing      ... done
   (1) Reading      ... done
   (1) Writing      ... done
   (2) Reading      ... done
   (2) Writing      ... done
   (3) Reading      ... done
   (3) Writing      ... done
(ij|v) resorting done in     0.024 sec

IA-Resorting
# of internal orbitals                 ... 16
# batches for internal orbitals        ... 1
   (0) Reading      ... done
   (0) Writing      ... done
   (1) Reading      ... done
   (1) Writing      ... done
   (2) Reading      ... done
   (2) Writing      ... done
   (3) Reading      ... done
   (3) Writing      ... done
(ia|v) resorting done in     0.068 sec

  Resorting completed in     0.093 sec
RI-GIAO-Integral transformation completed in     7.302 sec
Reading RI-integrals ... done
Doing RI-JK          ... done
 => dG/dB done
  RI-JK GIAO contributions                ...   done
  DFT XC-terms                            ... done
  Transforming to MO basis/RHS contribs.  ... done
  GIAO profiling information: 
    Total GIAO time               ...      21.1 sec
       Grid setup                 ...       0.2 sec (  0.9%)
       RI-V-matrix setup          ...       0.1 sec (  0.5%)
       GIAO 1-electron integrals  ...       0.0 sec (  0.1%)
       GIAO G(dS/dB) terms        ...       5.1 sec ( 24.0%)
       GIAO RI-JK                 ...       7.2 sec ( 34.0%)
       GIAO RI integral trafo     ...       7.3 sec ( 34.6%)
       GIAO XC-terms              ...       1.2 sec (  5.7%)

  GIAO right hand side done

     CP-SCF ITERATION   0: 
     CP-SCF ITERATION   1:      0.009141290
     CP-SCF ITERATION   2:      0.000183860
     CP-SCF ITERATION   3:      0.000000497

Forming final perturbed densities           ... done
Transforming perturbed density to AO basis  ...  done

Magnetic field perturbation calculated in 41.411 sec

---------------
CHEMICAL SHIFTS
---------------

Note: using conversion factor for au to ppm alpha^2/2 =   26.625677252 
Doing GIAO para- and diamagnetic shielding integrals analytically     ...done
Doing remaining GIAO terms numerically                                ...done
 --------------
 Nucleus   0C :
 --------------

Diamagnetic contribution to the shielding tensor (ppm) : 
           359.804        -46.940        58.375
            23.369        191.283       -35.817
           225.241         -9.371       351.842

Paramagnetic contribution to the shielding tensor (ppm): 
          -212.370         53.729       -58.735
           -20.856          3.230        47.960
          -222.899         14.003      -207.546

Total shielding tensor (ppm): 
           147.434          6.789        -0.359
             2.513        194.513        12.143
             2.343          4.632       144.296


 Diagonalized sT*s matrix:
 
 sDSO           341.699          369.164          192.066  iso=     300.976
 sPSO          -198.773         -222.178            4.265  iso=    -138.895
        ---------------  ---------------  ---------------
 Total          142.926          146.987          196.331  iso=     162.081

 --------------
 Nucleus   1C :
 --------------

Diamagnetic contribution to the shielding tensor (ppm) : 
           162.527         35.804      -130.810
            31.118        232.448        43.592
          -139.808         58.820        -6.321

Paramagnetic contribution to the shielding tensor (ppm): 
          -193.045        -66.201       187.448
           -61.385       -320.567       -62.704
           197.313        -78.026        75.731

Total shielding tensor (ppm): 
           -30.517        -30.397        56.637
           -30.267        -88.119       -19.111
            57.505        -19.207        69.410


 Diagonalized sT*s matrix:
 
 sDSO           234.300          -89.248          243.604  iso=     129.552
 sPSO          -282.318          187.946         -343.509  iso=    -145.960
        ---------------  ---------------  ---------------
 Total          -48.018           98.697          -99.905  iso=     -16.409

 --------------
 Nucleus   2H :
 --------------

Diamagnetic contribution to the shielding tensor (ppm) : 
            48.751         -7.577         4.544
            -6.813          1.627        -1.789
            27.326          2.657        40.896

Paramagnetic contribution to the shielding tensor (ppm): 
           -19.773          8.172        -6.048
             4.082         29.053         5.131
           -29.689         -1.499       -12.451

Total shielding tensor (ppm): 
            28.977          0.595        -1.504
            -2.731         30.679         3.342
            -2.363          1.158        28.445


 Diagonalized sT*s matrix:
 
 sDSO            53.881           16.848           20.544  iso=      30.425
 sPSO           -27.449           11.791           12.486  iso=      -1.057
        ---------------  ---------------  ---------------
 Total           26.432           28.640           33.030  iso=      29.367

 --------------
 Nucleus   3H :
 --------------

Diamagnetic contribution to the shielding tensor (ppm) : 
            61.054        -24.182       -10.196
             1.137         50.610        -0.898
            60.271        -46.587        11.756

Paramagnetic contribution to the shielding tensor (ppm): 
           -29.864         24.727        11.231
             1.438        -21.909         2.086
           -58.124         48.476        16.309

Total shielding tensor (ppm): 
            31.190          0.545         1.034
             2.575         28.701         1.188
             2.148          1.889        28.065


 Diagonalized sT*s matrix:
 
 sDSO            42.474           29.957           50.989  iso=      41.140
 sPSO           -15.684           -1.667          -18.113  iso=     -11.821
        ---------------  ---------------  ---------------
 Total           26.790           28.290           32.876  iso=      29.319

 --------------
 Nucleus   4H :
 --------------

Diamagnetic contribution to the shielding tensor (ppm) : 
            17.632         12.689        21.384
            -2.936         18.907        -9.748
            -2.406         29.275        65.157

Paramagnetic contribution to the shielding tensor (ppm): 
             9.809        -13.215       -21.353
             2.826         11.454         6.521
             2.410        -31.692       -34.935

Total shielding tensor (ppm): 
            27.441         -0.526         0.032
            -0.110         30.361        -3.227
             0.003         -2.417        30.222


 Diagonalized sT*s matrix:
 
 sDSO            42.256           27.282           32.158  iso=      33.899
 sPSO           -15.016            0.378            0.966  iso=      -4.557
        ---------------  ---------------  ---------------
 Total           27.240           27.660           33.125  iso=      29.342

 --------------
 Nucleus   5C :
 --------------

Diamagnetic contribution to the shielding tensor (ppm) : 
           278.914        -50.052        47.656
          -103.274        271.261       -12.480
           154.487       -157.365       326.866

Paramagnetic contribution to the shielding tensor (ppm): 
          -109.832         71.275       -60.389
           128.355        -99.490         1.967
          -158.943        149.288      -182.293

Total shielding tensor (ppm): 
           169.082         21.224       -12.733
            25.081        171.772       -10.513
            -4.456         -8.076       144.574


 Diagonalized sT*s matrix:
 
 sDSO           320.059          354.727          202.255  iso=     292.347
 sPSO          -178.556         -207.488           -5.570  iso=    -130.538
        ---------------  ---------------  ---------------
 Total          141.504          147.239          196.685  iso=     161.809

 --------------
 Nucleus   6H :
 --------------

Diamagnetic contribution to the shielding tensor (ppm) : 
            32.311        -22.009         4.192
           -17.785         19.787         3.665
            15.726        -18.301        35.880

Paramagnetic contribution to the shielding tensor (ppm): 
            -1.855         20.916        -7.846
            19.882          8.920        -4.924
           -18.485         19.242        -6.959

Total shielding tensor (ppm): 
            30.456         -1.094        -3.654
             2.096         28.707        -1.259
            -2.759          0.941        28.922


 Diagonalized sT*s matrix:
 
 sDSO            47.176           18.630           22.171  iso=      29.326
 sPSO           -20.799           10.040           10.867  iso=       0.036
        ---------------  ---------------  ---------------
 Total           26.377           28.670           33.037  iso=      29.361

 --------------
 Nucleus   7H :
 --------------

Diamagnetic contribution to the shielding tensor (ppm) : 
            11.932         -7.650        21.869
             0.599         17.506        -4.409
           -18.801        -13.026        61.886

Paramagnetic contribution to the shielding tensor (ppm): 
            17.797          9.365       -19.410
             0.870         11.094         6.348
            20.725         14.444       -32.213

Total shielding tensor (ppm): 
            29.729          1.715         2.459
             1.470         28.600         1.939
             1.925          1.419        29.673


 Diagonalized sT*s matrix:
 
 sDSO            41.594           22.429           27.301  iso=      30.441
 sPSO           -14.220            5.114            5.784  iso=      -1.107
        ---------------  ---------------  ---------------
 Total           27.374           27.543           33.085  iso=      29.334

 --------------
 Nucleus   8H :
 --------------

Diamagnetic contribution to the shielding tensor (ppm) : 
            66.129          4.828       -13.030
            -8.048         48.731         6.412
            65.257        -19.941         2.615

Paramagnetic contribution to the shielding tensor (ppm): 
           -37.896         -4.928        12.662
             5.812        -17.192        -7.913
           -65.268         16.953        25.449

Total shielding tensor (ppm): 
            28.232         -0.100        -0.368
            -2.236         31.538        -1.501
            -0.011         -2.988        28.064


 Diagonalized sT*s matrix:
 
 sDSO            35.468           29.593           52.412  iso=      39.158
 sPSO            -8.830           -1.239          -19.569  iso=      -9.880
        ---------------  ---------------  ---------------
 Total           26.637           28.354           32.843  iso=      29.278

 --------------
 Nucleus   9O :
 --------------

Diamagnetic contribution to the shielding tensor (ppm) : 
           469.453        -42.969       123.036
           -45.782        381.886       -49.033
           136.506        -50.133       645.290

Paramagnetic contribution to the shielding tensor (ppm): 
         -1078.012        152.490       346.837
           157.608       -853.654      -150.124
           282.066       -123.842      -576.960

Total shielding tensor (ppm): 
          -608.558        109.521       469.872
           111.826       -471.769      -199.156
           418.572       -173.975        68.330


 Diagonalized sT*s matrix:
 
 sDSO           726.105          363.207          407.317  iso=     498.876
 sPSO          -421.900         -775.336        -1311.390  iso=    -836.209
        ---------------  ---------------  ---------------
 Total          304.206         -412.129         -904.073  iso=    -337.332



--------------------------
CHEMICAL SHIELDING SUMMARY (ppm)
--------------------------


  Nucleus  Element    Isotropic     Anisotropy
  -------  -------  ------------   ------------
      0       C          162.081         51.374 
      1       C          -16.409       -125.245 
      2       H           29.367          5.494 
      3       H           29.319          5.336 
      4       H           29.342          5.675 
      5       C          161.809         52.314 
      6       H           29.361          5.514 
      7       H           29.334          5.627 
      8       H           29.278          5.347 
      9       O         -337.332       -850.111 



Timings for individual modules:

Sum of individual times         ...      112.073 sec (=   1.868 min)
GTO integral calculation        ...        0.259 sec (=   0.004 min)   0.2 %
SCF iterations                  ...       49.384 sec (=   0.823 min)  44.1 %
SCF-level EPR/NMR calculation   ...       62.430 sec (=   1.041 min)  55.7 %
                             ****ORCA TERMINATED NORMALLY****
TOTAL RUN TIME: 0 days 0 hours 1 minutes 52 seconds 190 msec
