
                                 *****************
                                 * O   R   C   A *
                                 *****************

           --- An Ab Initio, DFT and Semiempirical electronic structure package ---

                  #######################################################
                  #                        -***-                        #
                  #  Department of molecular theory and spectroscopy    #
                  #              Directorship: Frank Neese              #
                  # Max Planck Institute for Chemical Energy Conversion #
                  #                  D-45470 Muelheim/Ruhr              #
                  #                       Germany                       #
                  #                                                     #
                  #                  All rights reserved                #
                  #                        -***-                        #
                  #######################################################


                         Program Version 4.0.0.2 - RELEASE -


 With contributions from (in alphabetic order):
   Daniel Aravena         : Magnetic Properties
   Michael Atanasov       : Ab Initio Ligand Field Theory
   Ute Becker             : Parallelization
   Martin Brehm           : Molecular dynamics
   Dmytro Bykov           : SCF Hessian
   Vijay G. Chilkuri      : MRCI spin determinant printing
   Dipayan Datta          : RHF DLPNO-CCSD density
   Achintya Kumar Dutta   : EOM-CC, STEOM-CC
   Dmitry Ganyushin       : Spin-Orbit,Spin-Spin,Magnetic field MRCI
   Yang Guo               : DLPNO-NEVPT2, CIM, IAO-localization
   Andreas Hansen         : Spin unrestricted coupled pair/coupled cluster methods
   Lee Huntington         : MR-EOM, pCC
   Robert Izsak           : Overlap fitted RIJCOSX, COSX-SCS-MP3, EOM
   Christian Kollmar      : KDIIS, OOCD, Brueckner-CCSD(T), CCSD density
   Simone Kossmann        : Meta GGA functionals, TD-DFT gradient, OOMP2, MP2 Hessian
   Martin Krupicka        : AUTO-CI
   Dagmar Lenk            : GEPOL surface
   Dimitrios Liakos       : Extrapolation schemes; parallel MDCI
   Dimitrios Manganas     : ROCIS; embedding schemes
   Dimitrios Pantazis     : SARC Basis sets
   Taras Petrenko         : DFT Hessian,TD-DFT gradient, ASA, ECA, R-Raman, ABS, FL, XAS/XES, NRVS
   Peter Pinski           : DLPNO-MP2
   Christoph Reimann      : Effective Core Potentials
   Marius Retegan         : Local ZFS, SOC
   Christoph Riplinger    : Optimizer, TS searches, QM/MM, DLPNO-CCSD(T), (RO)-DLPNO pert. Triples
   Tobias Risthaus        : Range-separated hybrids, TD-DFT gradient, RPA, STAB
   Michael Roemelt        : Restricted open shell CIS
   Masaaki Saitow         : Open-shell DLPNO
   Barbara Sandhoefer     : DKH picture change effects
   Kantharuban Sivalingam : CASSCF convergence, NEVPT2, FIC-MRCI
   Georgi Stoychev        : AutoAux
   Boris Wezisla          : Elementary symmetry handling
   Frank Wennmohs         : Technical directorship


 We gratefully acknowledge several colleagues who have allowed us to
 interface, adapt or use parts of their codes:
   Stefan Grimme, W. Hujo, H. Kruse,             : VdW corrections, initial TS optimization,
                  C. Bannwarth                     DFT functionals, gCP, sTDA/sTD-DF
   Ed Valeev                                     : LibInt (2-el integral package), F12 methods
   Garnet Chan, S. Sharma, J. Yang, R. Olivares  : DMRG
   Ulf Ekstrom                                   : XCFun DFT Library
   Mihaly Kallay                                 : mrcc  (arbitrary order and MRCC methods)
   Jiri Pittner, Ondrej Demel                    : Mk-CCSD
   Frank Weinhold                                : gennbo (NPA and NBO analysis)
   Christopher J. Cramer and Donald G. Truhlar   : smd solvation model


 Your calculation uses the libint2 library for the computation of 2-el integrals
 For citations please refer to: http://libint.valeyev.net

 This ORCA versions uses:
   CBLAS   interface :  Fast vector & matrix operations
   LAPACKE interface :  Fast linear algebra routines
   SCALAPACK package :  Parallel linear algebra routines




*****************************************
The coordinations will be read from file: guess.xyz
*****************************************



Information: The global flag for chemical shieldings has been found
             ==>> will calculate the chemical shifts for all atoms in the system

Your calculation utilizes the basis: cc-pVDZ 
       H, B-Ne : Obtained from the ccRepo (grant-hill.group.shef.ac.uk/ccrepo) Feb. 2017
                 T. H. Dunning, Jr., J. Chem. Phys. 90, 1007 (1989)
            He : Obtained from the ccRepo (grant-hill.group.shef.ac.uk/ccrepo) Feb. 2017
                 D. E. Woon, T. H. Dunning, Jr., J. Chem. Phys. 100, 2975 (1994)
  Li-Be, Na-Mg : Obtained from the ccRepo (grant-hill.group.shef.ac.uk/ccrepo) Feb. 2017
                 B. P. Prascher, D. E. Woon, K. A. Peterson, T. H. Dunning, Jr., A. K. Wilson, Theor. Chem. Acc. 128, 69 (2011)
         Al-Ar : Obtained from the ccRepo (grant-hill.group.shef.ac.uk/ccrepo) Feb. 2017
                 D. E. Woon, T. H. Dunning, Jr., J. Chem. Phys. 98, 1358 (1993)
            Ca : Obtained from the Peterson Research Group Website (tyr0.chem.wsu.edu/~kipeters) Feb. 2017
                 J. Koput, K. A. Peterson, J. Phys. Chem. 106, 9595 (2002)
         Sc-Zn : Obtained from the ccRepo (grant-hill.group.shef.ac.uk/ccrepo) Feb. 2017
                 N. B. Balabanov, K. A. Peterson, J. Chem. Phys. 123, 064107 (2005)
                 N. B. Balabanov, K. A. Peterson, J. Chem. Phys. 125, 074110 (2006)
         Ga-Kr : Obtained from the ccRepo (grant-hill.group.shef.ac.uk/ccrepo) Feb. 2017
                 A. K. Wilson, D. E. Woon, K. A. Peterson, T. H. Dunning, Jr., J. Chem. Phys. 110, 7667 (1999)

Your calculation utilizes the auxiliary basis: def2/J
   F. Weigend, Phys. Chem. Chem. Phys. 8, 1057 (2006).

================================================================================
                                        WARNINGS
                       Please study these warnings very carefully!
================================================================================

Warning: TCutStore was < 0. Adjusted to Thresh (uncritical)

INFO   : the flag for use of LIBINT has been found!

CheckInput: checking for shifts: .
================================================================================
                                       INPUT FILE
================================================================================
NAME = /home/jan/SoftwareDevelopment/karminus/output/olyp_ccpvdz/benzene/benzene.in
|  1> !cc-pvdz OLYP NMR
|  2> 
|  3> *xyzfile 0 1 guess.xyz
|  4> 
|  5> 
|  6>                          ****END OF INPUT****
================================================================================

                       ****************************
                       * Single Point Calculation *
                       ****************************

---------------------------------
CARTESIAN COORDINATES (ANGSTROEM)
---------------------------------
  C    -19.459240    2.355020   10.503830
  C    -18.168570    2.305240    9.911280
  C    -17.450500    3.475670    9.707430
  C    -17.975450    4.672240   10.234680
  C    -19.227980    4.703560   10.917320
  C    -19.964430    3.534860   11.077050
  H    -20.910000    3.521560   11.643470
  H    -20.085440    1.466610   10.475890
  H    -19.627990    5.651330   11.294580
  H    -17.393840    5.587990   10.142150
  H    -16.507880    3.462220    9.135840
  H    -17.736180    1.338680    9.635030

----------------------------
CARTESIAN COORDINATES (A.U.)
----------------------------
  NO LB      ZA    FRAG     MASS         X           Y           Z
   0 C     6.0000    0    12.011  -36.772634    4.450343   19.849362
   1 C     6.0000    0    12.011  -34.333622    4.356272   18.729605
   2 C     6.0000    0    12.011  -32.976666    6.568064   18.344384
   3 C     6.0000    0    12.011  -33.968678    8.829254   19.340742
   4 C     6.0000    0    12.011  -36.335616    8.888440   20.630745
   5 C     6.0000    0    12.011  -37.727305    6.679917   20.932591
   6 H     1.0000    0     1.008  -39.514173    6.654784   22.002970
   7 H     1.0000    0     1.008  -37.955981    2.771491   19.796563
   8 H     1.0000    0     1.008  -37.091526   10.679466   21.343663
   9 H     1.0000    0     1.008  -32.869594   10.559771   19.165886
  10 H     1.0000    0     1.008  -31.195372    6.542648   17.264236
  11 H     1.0000    0     1.008  -33.516523    2.529739   18.207568

--------------------------------
INTERNAL COORDINATES (ANGSTROEM)
--------------------------------
 C      0   0   0     0.000000000000     0.00000000     0.00000000
 C      1   0   0     1.421063897156     0.00000000     0.00000000
 C      2   1   0     1.388195134806   120.09937801     0.00000000
 C      3   2   1     1.409022650599   117.92654251     6.80115292
 C      4   3   2     1.426818037768   121.64963384   357.78832792
 C      5   4   3     1.390586914004   120.09350481     0.00000000
 H      6   5   4     1.102320793281   121.56398718   176.90243590
 H      1   2   3     1.087280741897   118.93047067   167.93083918
 H      5   4   3     1.095719435166   120.27737290   181.66982386
 H      4   3   2     1.088774565969   118.91062234   175.97143019
 H      3   2   1     1.102464736397   120.53860867   187.74529061
 H      2   1   3     1.094309557758   119.67456802   178.79811738

---------------------------
INTERNAL COORDINATES (A.U.)
---------------------------
 C      0   0   0     0.000000000000     0.00000000     0.00000000
 C      1   0   0     2.685421584428     0.00000000     0.00000000
 C      2   1   0     2.623308625226   120.09937801     0.00000000
 C      3   2   1     2.662666926123   117.92654251     6.80115292
 C      4   3   2     2.696295334320   121.64963384   357.78832792
 C      5   4   3     2.627828432883   120.09350481     0.00000000
 H      6   5   4     2.083084411028   121.56398718   176.90243590
 H      1   2   3     2.054662832872   118.93047067   167.93083918
 H      5   4   3     2.070609652078   120.27737290   181.66982386
 H      4   3   2     2.057485751260   118.91062234   175.97143019
 H      3   2   1     2.083356424097   120.53860867   187.74529061
 H      2   1   3     2.067945369895   119.67456802   178.79811738

---------------------
BASIS SET INFORMATION
---------------------
There are 2 groups of distinct atoms

 Group   1 Type C   : 17s4p1d contracted to 3s2p1d pattern {881/31/1}
 Group   2 Type H   : 4s1p contracted to 2s1p pattern {31/1}

Atom   0C    basis set group =>   1
Atom   1C    basis set group =>   1
Atom   2C    basis set group =>   1
Atom   3C    basis set group =>   1
Atom   4C    basis set group =>   1
Atom   5C    basis set group =>   1
Atom   6H    basis set group =>   2
Atom   7H    basis set group =>   2
Atom   8H    basis set group =>   2
Atom   9H    basis set group =>   2
Atom  10H    basis set group =>   2
Atom  11H    basis set group =>   2
-------------------------------
AUXILIARY BASIS SET INFORMATION
-------------------------------
There are 2 groups of distinct atoms

 Group   1 Type C   : 12s5p4d2f1g contracted to 6s4p3d1f1g pattern {711111/2111/211/2/1}
 Group   2 Type H   : 5s2p1d contracted to 3s1p1d pattern {311/2/1}

Atom   0C    basis set group =>   1
Atom   1C    basis set group =>   1
Atom   2C    basis set group =>   1
Atom   3C    basis set group =>   1
Atom   4C    basis set group =>   1
Atom   5C    basis set group =>   1
Atom   6H    basis set group =>   2
Atom   7H    basis set group =>   2
Atom   8H    basis set group =>   2
Atom   9H    basis set group =>   2
Atom  10H    basis set group =>   2
Atom  11H    basis set group =>   2
------------------------------------------------------------------------------
                           ORCA GTO INTEGRAL CALCULATION
                           -- RI-GTO INTEGRALS CHOSEN --
------------------------------------------------------------------------------

                         BASIS SET STATISTICS AND STARTUP INFO

Gaussian basis set:
 # of primitive gaussian shells          ...  162
 # of primitive gaussian functions       ...  246
 # of contracted shells                  ...   54
 # of contracted basis functions         ...  114
 Highest angular momentum                ...    2
 Maximum contraction depth               ...    8
Auxiliary gaussian basis set:
 # of primitive gaussian shells          ...  192
 # of primitive gaussian functions       ...  516
 # of contracted shells                  ...  120
 # of contracted aux-basis functions     ...  360
 Highest angular momentum                ...    4
 Maximum contraction depth               ...    7
Ratio of auxiliary to basis functions    ...  3.16
Integral package used                  ... LIBINT
 One Electron integrals                  ... done
 Ordering auxiliary basis shells         ... done
 Integral threshhold             Thresh  ...  1.000e-10
 Primitive cut-off               TCut    ...  1.000e-11
 Pre-screening matrix                    ... done
 Shell pair data                         ... 
 Ordering of the shell pairs             ... done (   0.000 sec) 1482 of 1485 pairs
 Determination of significant pairs      ... done (   0.000 sec)
 Creation of shell pair data             ... done (   0.002 sec)
 Storage of shell pair data              ... done (   0.001 sec)
 Shell pair data done in (   0.002 sec)
 Computing two index integrals           ... done
 Cholesky decomposition of the V-matrix  ... done


Timings:
 Total evaluation time                   ...   0.158 sec (  0.003 min)
 One electron matrix time                ...   0.011 sec (  0.000 min) =  7.2%
 Schwartz matrix evaluation time         ...   0.124 sec (  0.002 min) = 78.6%
 Two index repulsion integral time       ...   0.003 sec (  0.000 min) =  1.7%
 Cholesky decomposition of V             ...   0.001 sec (  0.000 min) =  0.8%
 Three index repulsion integral time     ...   0.000 sec (  0.000 min) =  0.0%

-------------------------------------------------------------------------------
                                 ORCA SCF
-------------------------------------------------------------------------------

------------
SCF SETTINGS
------------
Hamiltonian:
 Density Functional     Method          .... DFT(GTOs)
 Exchange Functional    Exchange        .... OPTX
 Correlation Functional Correlation     .... LYP
 Gradients option       PostSCFGGA      .... off
 RI-approximation to the Coulomb term is turned on
   Number of auxiliary basis functions  .... 360


General Settings:
 Integral files         IntName         .... /home/jan/SoftwareDevelopment/karminus/output/olyp_ccpvdz/benzene/benzene
 Hartree-Fock type      HFTyp           .... RHF
 Total Charge           Charge          ....    0
 Multiplicity           Mult            ....    1
 Number of Electrons    NEL             ....   42
 Basis Dimension        Dim             ....  114
 Nuclear Repulsion      ENuc            ....    201.7711212922 Eh

Convergence Acceleration:
 DIIS                   CNVDIIS         .... on
   Start iteration      DIISMaxIt       ....    12
   Startup error        DIISStart       ....  0.200000
   # of expansion vecs  DIISMaxEq       ....     5
   Bias factor          DIISBfac        ....   1.050
   Max. coefficient     DIISMaxC        ....  10.000
 Newton-Raphson         CNVNR           .... off
 SOSCF                  CNVSOSCF        .... on
   Start iteration      SOSCFMaxIt      ....   150
   Startup grad/error   SOSCFStart      ....  0.003300
 Level Shifting         CNVShift        .... on
   Level shift para.    LevelShift      ....    0.2500
   Turn off err/grad.   ShiftErr        ....    0.0010
 Zerner damping         CNVZerner       .... off
 Static damping         CNVDamp         .... on
   Fraction old density DampFac         ....    0.7000
   Max. Damping (<1)    DampMax         ....    0.9800
   Min. Damping (>=0)   DampMin         ....    0.0000
   Turn off err/grad.   DampErr         ....    0.1000
 Fernandez-Rico         CNVRico         .... off

SCF Procedure:
 Maximum # iterations   MaxIter         ....   125
 SCF integral mode      SCFMode         .... Direct
   Integral package                     .... LIBINT
 Reset frequeny         DirectResetFreq ....    20
 Integral Threshold     Thresh          ....  1.000e-10 Eh
 Primitive CutOff       TCut            ....  1.000e-11 Eh

Convergence Tolerance:
 Convergence Check Mode ConvCheckMode   .... Total+1el-Energy
 Convergence forced     ConvForced      .... 0
 Energy Change          TolE            ....  1.000e-06 Eh
 1-El. energy change                    ....  1.000e-03 Eh
 Orbital Gradient       TolG            ....  5.000e-05
 Orbital Rotation angle TolX            ....  5.000e-05
 DIIS Error             TolErr          ....  1.000e-06


Diagonalization of the overlap matrix:
Smallest eigenvalue                        ... 4.141e-04
Time for diagonalization                   ...    0.002 sec
Threshold for overlap eigenvalues          ... 1.000e-08
Number of eigenvalues below threshold      ... 0
Time for construction of square roots      ...    0.000 sec
Total time needed                          ...    0.002 sec

-------------------
DFT GRID GENERATION
-------------------

General Integration Accuracy     IntAcc      ...  4.340
Radial Grid Type                 RadialGrid  ... Gauss-Chebyshev
Angular Grid (max. acc.)         AngularGrid ... Lebedev-110
Angular grid pruning method      GridPruning ... 3 (G Style)
Weight generation scheme         WeightScheme... Becke
Basis function cutoff            BFCut       ...    1.0000e-10
Integration weight cutoff        WCut        ...    1.0000e-14
Grids for H and He will be reduced by one unit

# of grid points (after initial pruning)     ...  14700 (   0.0 sec)
# of grid points (after weights+screening)   ...  13785 (   0.0 sec)
nearest neighbour list constructed           ...    0.0 sec
Grid point re-assignment to atoms done       ...    0.0 sec
Grid point division into batches done        ...    0.0 sec
Reduced shell lists constructed in    0.3 sec

Total number of grid points                  ...    13785
Total number of batches                      ...      222
Average number of points per batch           ...       62
Average number of grid points per atom       ...     1149
Average number of shells per batch           ...    45.54 (84.34%)
Average number of basis functions per batch  ...    95.46 (83.74%)
Average number of large shells per batch     ...    37.00 (81.23%)
Average number of large basis fcns per batch ...    77.78 (81.47%)
Maximum spatial batch extension              ...  19.07, 21.59, 24.60 au
Average spatial batch extension              ...   4.25,  4.25,  4.81 au

Time for grid setup =    0.281 sec

------------------------------
INITIAL GUESS: MODEL POTENTIAL
------------------------------
Loading Hartree-Fock densities                     ... done
Calculating cut-offs                               ... done
Setting up the integral package                    ... done
Initializing the effective Hamiltonian             ... done
Starting the Coulomb interaction                   ... done (   0.2 sec)
Reading the grid                                   ... done
Mapping shells                                     ... done
Starting the XC term evaluation                    ... done (   0.3 sec)
  promolecular density results
     # of electrons  =     41.990882972
     EX              =    -32.565902634
     EC              =     -1.374665417
     EX+EC           =    -33.940568051
Transforming the Hamiltonian                       ... done (   0.0 sec)
Diagonalizing the Hamiltonian                      ... done (   0.0 sec)
Back transforming the eigenvectors                 ... done (   0.0 sec)
Now organizing SCF variables                       ... done
                      ------------------
                      INITIAL GUESS DONE (   0.8 sec)
                      ------------------
--------------
SCF ITERATIONS
--------------
ITER       Energy         Delta-E        Max-DP      RMS-DP      [F,P]     Damp
               ***  Starting incremental Fock matrix formation  ***
  0   -232.0693798747   0.000000000000 0.03401319  0.00218079  0.1004681 0.7000
  1   -232.1197536312  -0.050373756520 0.02914807  0.00167398  0.0472529 0.7000
                               ***Turning on DIIS***
  2   -232.1390646546  -0.019311023458 0.05265014  0.00280648  0.0172574 0.0000
  3   -232.1651715078  -0.026106853160 0.01822331  0.00120293  0.0336483 0.0000
  4   -232.1742170735  -0.009045565742 0.00866007  0.00041663  0.0070089 0.0000
                      *** Initiating the SOSCF procedure ***
                           *** Shutting down DIIS ***
                      *** Re-Reading the Fockian *** 
                      *** Removing any level shift *** 
ITER      Energy       Delta-E        Grad      Rot      Max-DP    RMS-DP
  5   -232.17476248  -0.0005454083  0.001018  0.001018  0.003031  0.000147
               *** Restarting incremental Fock matrix formation ***
  6   -232.17479521  -0.0000327292  0.000404  0.000910  0.001747  0.000090
  7   -232.17479553  -0.0000003153  0.000329  0.000280  0.000428  0.000023
  8   -232.17479761  -0.0000020794  0.000081  0.000326  0.000423  0.000022
  9   -232.17479737   0.0000002364  0.000133  0.000222  0.000234  0.000010
                 **** Energy Check signals convergence ****
              ***Rediagonalizing the Fockian in SOSCF/NRSCF***

               *****************************************************
               *                     SUCCESS                       *
               *           SCF CONVERGED AFTER  10 CYCLES          *
               *****************************************************

Setting up the final grid:

General Integration Accuracy     IntAcc      ...  4.670
Radial Grid Type                 RadialGrid  ... Gauss-Chebyshev
Angular Grid (max. acc.)         AngularGrid ... Lebedev-302
Angular grid pruning method      GridPruning ... 3 (G Style)
Weight generation scheme         WeightScheme... Becke
Basis function cutoff            BFCut       ...    1.0000e-10
Integration weight cutoff        WCut        ...    1.0000e-14
Grids for H and He will be reduced by one unit

# of grid points (after initial pruning)     ...  57636 (   0.0 sec)
# of grid points (after weights+screening)   ...  53590 (   0.1 sec)
nearest neighbour list constructed           ...    0.0 sec
Grid point re-assignment to atoms done       ...    0.0 sec
Grid point division into batches done        ...    0.2 sec
Reduced shell lists constructed in    1.1 sec

Total number of grid points                  ...    53590
Total number of batches                      ...      845
Average number of points per batch           ...       63
Average number of grid points per atom       ...     4466
Average number of shells per batch           ...    41.57 (76.99%)
Average number of basis functions per batch  ...    87.03 (76.34%)
Average number of large shells per batch     ...    32.83 (78.96%)
Average number of large basis fcns per batch ...    68.88 (79.15%)
Maximum spatial batch extension              ...  17.89, 19.29, 20.37 au
Average spatial batch extension              ...   2.80,  2.69,  2.95 au

Final grid set up in    1.2 sec
Final integration                            ... done (   1.0 sec)
Change in XC energy                          ...    -0.000074343
Integrated number of electrons               ...    42.000037326
Previous integrated no of electrons          ...    41.997048562

----------------
TOTAL SCF ENERGY
----------------

Total Energy       :         -232.17487214 Eh           -6317.79946 eV

Components:
Nuclear Repulsion  :          201.77112129 Eh            5490.47134 eV
Electronic Energy  :         -433.94599343 Eh          -11808.27080 eV
One Electron Energy:         -710.95259580 Eh          -19346.00366 eV
Two Electron Energy:          277.00660237 Eh            7537.73286 eV

Virial components:
Potential Energy   :         -462.70478907 Eh          -12590.83742 eV
Kinetic Energy     :          230.52991693 Eh            6273.03795 eV
Virial Ratio       :            2.00713554


DFT components:
N(Alpha)           :       21.000018663156 electrons
N(Beta)            :       21.000018663156 electrons
N(Total)           :       42.000037326312 electrons
E(X)               :      -33.297834472857 Eh       
E(C)               :       -1.385014063041 Eh       
E(XC)              :      -34.682848535899 Eh       

---------------
SCF CONVERGENCE
---------------

  Last Energy change         ...   -4.2709e-07  Tolerance :   1.0000e-06
  Last MAX-Density change    ...    1.3395e-04  Tolerance :   1.0000e-05
  Last RMS-Density change    ...    7.2471e-06  Tolerance :   1.0000e-06
  Last Orbital Gradient      ...    3.4002e-05  Tolerance :   5.0000e-05
  Last Orbital Rotation      ...    6.3574e-05  Tolerance :   5.0000e-05

             **** THE GBW FILE WAS UPDATED (/home/jan/SoftwareDevelopment/karminus/output/olyp_ccpvdz/benzene/benzene.gbw) ****
             **** DENSITY FILE WAS UPDATED (/home/jan/SoftwareDevelopment/karminus/output/olyp_ccpvdz/benzene/benzene.scfp.tmp) ****
             **** ENERGY FILE WAS UPDATED (/home/jan/SoftwareDevelopment/karminus/output/olyp_ccpvdz/benzene/benzene.en.tmp) ****
----------------
ORBITAL ENERGIES
----------------

  NO   OCC          E(Eh)            E(eV) 
   0   2.0000      -9.918285      -269.8903 
   1   2.0000      -9.917835      -269.8780 
   2   2.0000      -9.917339      -269.8645 
   3   2.0000      -9.917190      -269.8605 
   4   2.0000      -9.916921      -269.8531 
   5   2.0000      -9.916685      -269.8467 
   6   2.0000      -0.771267       -20.9872 
   7   2.0000      -0.676720       -18.4145 
   8   2.0000      -0.665588       -18.1116 
   9   2.0000      -0.539365       -14.6769 
  10   2.0000      -0.534575       -14.5465 
  11   2.0000      -0.459995       -12.5171 
  12   2.0000      -0.407431       -11.0868 
  13   2.0000      -0.386854       -10.5268 
  14   2.0000      -0.371753       -10.1159 
  15   2.0000      -0.358306        -9.7500 
  16   2.0000      -0.316506        -8.6126 
  17   2.0000      -0.296313        -8.0631 
  18   2.0000      -0.292529        -7.9601 
  19   2.0000      -0.221180        -6.0186 
  20   2.0000      -0.211455        -5.7540 
  21   0.0000      -0.032973        -0.8972 
  22   0.0000      -0.027461        -0.7473 
  23   0.0000       0.034342         0.9345 
  24   0.0000       0.071919         1.9570 
  25   0.0000       0.076089         2.0705 
  26   0.0000       0.107511         2.9255 
  27   0.0000       0.107793         2.9332 
  28   0.0000       0.110337         3.0024 
  29   0.0000       0.122528         3.3342 
  30   0.0000       0.241526         6.5723 
  31   0.0000       0.254509         6.9255 
  32   0.0000       0.262238         7.1359 
  33   0.0000       0.267565         7.2808 
  34   0.0000       0.366316         9.9680 
  35   0.0000       0.397716        10.8224 
  36   0.0000       0.406189        11.0530 
  37   0.0000       0.456143        12.4123 
  38   0.0000       0.465417        12.6646 
  39   0.0000       0.469198        12.7675 
  40   0.0000       0.474222        12.9042 
  41   0.0000       0.480566        13.0769 
  42   0.0000       0.496105        13.4997 
  43   0.0000       0.503467        13.7000 
  44   0.0000       0.505626        13.7588 
  45   0.0000       0.508063        13.8251 
  46   0.0000       0.571593        15.5538 
  47   0.0000       0.573438        15.6040 
  48   0.0000       0.600324        16.3357 
  49   0.0000       0.607475        16.5302 
  50   0.0000       0.618747        16.8370 
  51   0.0000       0.625447        17.0193 
  52   0.0000       0.643422        17.5084 
  53   0.0000       0.672636        18.3034 
  54   0.0000       0.760776        20.7018 
  55   0.0000       0.770740        20.9729 
  56   0.0000       0.804506        21.8917 
  57   0.0000       0.844341        22.9757 
  58   0.0000       0.849356        23.1121 
  59   0.0000       0.871813        23.7232 
  60   0.0000       0.918709        24.9993 
  61   0.0000       0.925487        25.1838 
  62   0.0000       0.950358        25.8606 
  63   0.0000       0.954995        25.9867 
  64   0.0000       0.970680        26.4135 
  65   0.0000       0.973486        26.4899 
  66   0.0000       1.016173        27.6515 
  67   0.0000       1.028523        27.9875 
  68   0.0000       1.042265        28.3615 
  69   0.0000       1.146774        31.2053 
  70   0.0000       1.232187        33.5295 
  71   0.0000       1.248241        33.9664 
  72   0.0000       1.395396        37.9707 
  73   0.0000       1.397517        38.0284 
  74   0.0000       1.412201        38.4279 
  75   0.0000       1.439532        39.1717 
  76   0.0000       1.468971        39.9727 
  77   0.0000       1.507539        41.0222 
  78   0.0000       1.520226        41.3675 
  79   0.0000       1.533316        41.7237 
  80   0.0000       1.537505        41.8376 
  81   0.0000       1.550177        42.1824 
  82   0.0000       1.605768        43.6952 
  83   0.0000       1.609429        43.7948 
  84   0.0000       1.625437        44.2304 
  85   0.0000       1.629914        44.3522 
  86   0.0000       1.693445        46.0810 
  87   0.0000       1.703517        46.3551 
  88   0.0000       1.709427        46.5159 
  89   0.0000       1.759983        47.8916 
  90   0.0000       1.765284        48.0358 
  91   0.0000       1.784923        48.5702 
  92   0.0000       1.786695        48.6184 
  93   0.0000       1.796304        48.8799 
  94   0.0000       1.816544        49.4307 
  95   0.0000       1.895748        51.5859 
  96   0.0000       1.900869        51.7253 
  97   0.0000       1.904979        51.8371 
  98   0.0000       1.917943        52.1899 
  99   0.0000       1.942504        52.8582 
 100   0.0000       2.105331        57.2890 
 101   0.0000       2.151655        58.5495 
 102   0.0000       2.306031        62.7503 
 103   0.0000       2.328731        63.3680 
 104   0.0000       2.333495        63.4976 
 105   0.0000       2.337317        63.6016 
 106   0.0000       2.370033        64.4919 
 107   0.0000       2.520355        68.5823 
 108   0.0000       2.544600        69.2421 
 109   0.0000       2.598081        70.6974 
 110   0.0000       2.690405        73.2097 
 111   0.0000       2.794782        76.0499 
 112   0.0000       2.803320        76.2822 
 113   0.0000       3.486173        94.8636 

                    ********************************
                    * MULLIKEN POPULATION ANALYSIS *
                    ********************************

-----------------------
MULLIKEN ATOMIC CHARGES
-----------------------
   0 C :    0.045716
   1 C :    0.049919
   2 C :    0.044580
   3 C :    0.046513
   4 C :    0.051743
   5 C :    0.046481
   6 H :   -0.044688
   7 H :   -0.046531
   8 H :   -0.050672
   9 H :   -0.048810
  10 H :   -0.044253
  11 H :   -0.049998
Sum of atomic charges:   -0.0000000

--------------------------------
MULLIKEN REDUCED ORBITAL CHARGES
--------------------------------
  0 C s       :     3.145980  s :     3.145980
      pz      :     0.972451  p :     2.745795
      px      :     0.903092
      py      :     0.870252
      dz2     :     0.008537  d :     0.062508
      dxz     :     0.009862
      dyz     :     0.008018
      dx2y2   :     0.015037
      dxy     :     0.021053
  1 C s       :     3.149477  s :     3.149477
      pz      :     0.965786  p :     2.737114
      px      :     0.931787
      py      :     0.839542
      dz2     :     0.005782  d :     0.063490
      dxz     :     0.009644
      dyz     :     0.009361
      dx2y2   :     0.018919
      dxy     :     0.019784
  2 C s       :     3.161903  s :     3.161903
      pz      :     0.922728  p :     2.729564
      px      :     0.849415
      py      :     0.957421
      dz2     :     0.005728  d :     0.063953
      dxz     :     0.006851
      dyz     :     0.014120
      dx2y2   :     0.021165
      dxy     :     0.016088
  3 C s       :     3.155214  s :     3.155214
      pz      :     0.970500  p :     2.736591
      px      :     0.908975
      py      :     0.857116
      dz2     :     0.008977  d :     0.061682
      dxz     :     0.008794
      dyz     :     0.009121
      dx2y2   :     0.015014
      dxy     :     0.019776
  4 C s       :     3.155246  s :     3.155246
      pz      :     0.952560  p :     2.730332
      px      :     0.934798
      py      :     0.842975
      dz2     :     0.006371  d :     0.062679
      dxz     :     0.009248
      dyz     :     0.010657
      dx2y2   :     0.018102
      dxy     :     0.018301
  5 C s       :     3.159189  s :     3.159189
      pz      :     0.925689  p :     2.730345
      px      :     0.848655
      py      :     0.956000
      dz2     :     0.005966  d :     0.063985
      dxz     :     0.007161
      dyz     :     0.014002
      dx2y2   :     0.021021
      dxy     :     0.015835
  6 H s       :     1.013830  s :     1.013830
      pz      :     0.009953  p :     0.030857
      px      :     0.016242
      py      :     0.004662
  7 H s       :     1.014878  s :     1.014878
      pz      :     0.006499  p :     0.031652
      px      :     0.010049
      py      :     0.015104
  8 H s       :     1.019390  s :     1.019390
      pz      :     0.008072  p :     0.031282
      px      :     0.007038
      py      :     0.016172
  9 H s       :     1.017226  s :     1.017226
      pz      :     0.006525  p :     0.031584
      px      :     0.009491
      py      :     0.015568
 10 H s       :     1.013387  s :     1.013387
      pz      :     0.010067  p :     0.030866
      px      :     0.016194
      py      :     0.004604
 11 H s       :     1.018618  s :     1.018618
      pz      :     0.007432  p :     0.031380
      px      :     0.007280
      py      :     0.016668


                     *******************************
                     * LOEWDIN POPULATION ANALYSIS *
                     *******************************

----------------------
LOEWDIN ATOMIC CHARGES
----------------------
   0 C :   -0.018299
   1 C :   -0.021769
   2 C :   -0.026082
   3 C :   -0.018502
   4 C :   -0.022131
   5 C :   -0.026477
   6 H :    0.025514
   7 H :    0.019642
   8 H :    0.021657
   9 H :    0.019305
  10 H :    0.025557
  11 H :    0.021586

-------------------------------
LOEWDIN REDUCED ORBITAL CHARGES
-------------------------------
  0 C s       :     2.832431  s :     2.832431
      pz      :     0.965064  p :     2.994123
      px      :     1.013673
      py      :     1.015385
      dz2     :     0.023435  d :     0.191746
      dxz     :     0.029028
      dyz     :     0.023324
      dx2y2   :     0.049624
      dxy     :     0.066335
  1 C s       :     2.830198  s :     2.830198
      pz      :     0.956232  p :     2.995415
      px      :     1.019397
      py      :     1.019786
      dz2     :     0.017536  d :     0.196156
      dxz     :     0.028011
      dyz     :     0.024938
      dx2y2   :     0.062284
      dxy     :     0.063387
  2 C s       :     2.830159  s :     2.830159
      pz      :     0.957870  p :     2.997823
      px      :     0.991226
      py      :     1.048727
      dz2     :     0.015722  d :     0.198101
      dxz     :     0.022819
      dyz     :     0.039954
      dx2y2   :     0.066116
      dxy     :     0.053490
  3 C s       :     2.835258  s :     2.835258
      pz      :     0.969280  p :     2.994194
      px      :     1.008345
      py      :     1.016569
      dz2     :     0.024332  d :     0.189050
      dxz     :     0.027337
      dyz     :     0.025749
      dx2y2   :     0.049182
      dxy     :     0.062450
  4 C s       :     2.832625  s :     2.832625
      pz      :     0.962376  p :     2.995766
      px      :     1.014799
      py      :     1.018591
      dz2     :     0.018320  d :     0.193740
      dxz     :     0.028321
      dyz     :     0.029526
      dx2y2   :     0.058702
      dxy     :     0.058871
  5 C s       :     2.829759  s :     2.829759
      pz      :     0.959846  p :     2.998368
      px      :     0.991752
      py      :     1.046770
      dz2     :     0.016401  d :     0.198351
      dxz     :     0.023724
      dyz     :     0.040001
      dx2y2   :     0.065507
      dxy     :     0.052717
  6 H s       :     0.894942  s :     0.894942
      pz      :     0.024746  p :     0.079544
      px      :     0.040067
      py      :     0.014731
  7 H s       :     0.896933  s :     0.896933
      pz      :     0.018064  p :     0.083425
      px      :     0.026766
      py      :     0.038595
  8 H s       :     0.897247  s :     0.897247
      pz      :     0.021206  p :     0.081096
      px      :     0.019924
      py      :     0.039966
  9 H s       :     0.897658  s :     0.897658
      pz      :     0.018057  p :     0.083036
      px      :     0.025476
      py      :     0.039503
 10 H s       :     0.894913  s :     0.894913
      pz      :     0.024938  p :     0.079530
      px      :     0.039939
      py      :     0.014653
 11 H s       :     0.896996  s :     0.896996
      pz      :     0.019880  p :     0.081418
      px      :     0.020511
      py      :     0.041028


                      *****************************
                      * MAYER POPULATION ANALYSIS *
                      *****************************

  NA   - Mulliken gross atomic population
  ZA   - Total nuclear charge
  QA   - Mulliken gross atomic charge
  VA   - Mayer's total valence
  BVA  - Mayer's bonded valence
  FA   - Mayer's free valence

  ATOM       NA         ZA         QA         VA         BVA        FA
  0 C      5.9543     6.0000     0.0457     3.9657     3.9657     0.0000
  1 C      5.9501     6.0000     0.0499     3.9657     3.9657    -0.0000
  2 C      5.9554     6.0000     0.0446     3.9537     3.9537     0.0000
  3 C      5.9535     6.0000     0.0465     3.9562     3.9562     0.0000
  4 C      5.9483     6.0000     0.0517     3.9572     3.9572    -0.0000
  5 C      5.9535     6.0000     0.0465     3.9555     3.9555     0.0000
  6 H      1.0447     1.0000    -0.0447     0.9667     0.9667    -0.0000
  7 H      1.0465     1.0000    -0.0465     0.9656     0.9656     0.0000
  8 H      1.0507     1.0000    -0.0507     0.9656     0.9656    -0.0000
  9 H      1.0488     1.0000    -0.0488     0.9650     0.9650     0.0000
 10 H      1.0443     1.0000    -0.0443     0.9668     0.9668    -0.0000
 11 H      1.0500     1.0000    -0.0500     0.9661     0.9661    -0.0000

  Mayer bond orders larger than 0.1
B(  0-C ,  1-C ) :   1.4348 B(  0-C ,  5-C ) :   1.4380 B(  0-C ,  7-H ) :   0.9408 
B(  1-C ,  2-C ) :   1.4471 B(  1-C , 11-H ) :   0.9410 B(  2-C ,  3-C ) :   1.4329 
B(  2-C , 10-H ) :   0.9432 B(  3-C ,  4-C ) :   1.4305 B(  3-C ,  9-H ) :   0.9420 
B(  4-C ,  5-C ) :   1.4438 B(  4-C ,  8-H ) :   0.9415 B(  5-C ,  6-H ) :   0.9423 


-------
TIMINGS
-------

Total SCF time: 0 days 0 hours 0 min 9 sec 

Total time                  ....       9.808 sec
Sum of individual times     ....       9.794 sec  ( 99.9%)

Fock matrix formation       ....       7.737 sec  ( 78.9%)
  Split-RI-J                ....       3.504 sec  ( 45.3% of F)
  XC integration            ....       4.228 sec  ( 54.6% of F)
    Basis function eval.    ....       2.985 sec  ( 70.6% of XC)
    Density eval.           ....       0.371 sec  (  8.8% of XC)
    XC-Functional eval.     ....       0.086 sec  (  2.0% of XC)
    XC-Potential eval.      ....       0.741 sec  ( 17.5% of XC)
Diagonalization             ....       0.011 sec  (  0.1%)
Density matrix formation    ....       0.001 sec  (  0.0%)
Population analysis         ....       0.003 sec  (  0.0%)
Initial guess               ....       0.569 sec  (  5.8%)
Orbital Transformation      ....       0.000 sec  (  0.0%)
Orbital Orthonormalization  ....       0.000 sec  (  0.0%)
DIIS solution               ....       0.003 sec  (  0.0%)
SOSCF solution              ....       0.005 sec  (  0.0%)
Grid generation             ....       1.464 sec  ( 14.9%)

-------------------------   --------------------
FINAL SINGLE POINT ENERGY      -232.174872139061
-------------------------   --------------------


                            ***************************************
                            *     ORCA property calculations      *
                            ***************************************

                                    ---------------------
                                    Active property flags
                                    ---------------------
   (+) Dipole Moment
   (+) Chemical Shifts


------------------------------------------------------------------------------
                       ORCA ELECTRIC PROPERTIES CALCULATION
------------------------------------------------------------------------------

Dipole Moment Calculation                       ... on
Quadrupole Moment Calculation                   ... off
Polarizability Calculation                      ... off
GBWName                                         ... /home/jan/SoftwareDevelopment/karminus/output/olyp_ccpvdz/benzene/benzene.gbw
Electron density file                           ... /home/jan/SoftwareDevelopment/karminus/output/olyp_ccpvdz/benzene/benzene.scfp.tmp

-------------
DIPOLE MOMENT
-------------
                                X             Y             Z
Electronic contribution:      0.01123       0.00806       0.01497
Nuclear contribution   :     -0.01312      -0.01575      -0.02132
                        -----------------------------------------
Total Dipole Moment    :     -0.00189      -0.00769      -0.00635
                        -----------------------------------------
Magnitude (a.u.)       :      0.01015
Magnitude (Debye)      :      0.02580

------------------------------------------------------------------------------
                                ORCA EPR/NMR CALCULATION
------------------------------------------------------------------------------

GBWName                      ... /home/jan/SoftwareDevelopment/karminus/output/olyp_ccpvdz/benzene/benzene.gbw
Electron density file        ... /home/jan/SoftwareDevelopment/karminus/output/olyp_ccpvdz/benzene/benzene.scfp.tmp
Spin density file            ... /home/jan/SoftwareDevelopment/karminus/output/olyp_ccpvdz/benzene/benzene.scfr.tmp
Treatment of gauge           ... GIAO (approximations 1/2el = 0,3)
Details of the CP(SCF) procedure:
       Solver   = POPLE   
       MaxIter  =    64   
       Tolerance=    1.000e-06
       Op-0     =   0- 20 =>  21-113
Multiplicity                 ... 1
g-tensor                     ... 0
NMR chemical shifts          ... 1
Number of nuclei for epr/nmr ... 12
   Nucleus:   0C 
       Hyperfine : Isotope=   13 I=   0.500 P= 134.188
       Quadrupole: Isotope=   13 I=   0.500 Q=   0.000
       Spin-Orbit: Zeff=   3.600
       rho(0)=N f(grad)=N a(iso)=N a(dip)=N a(orb)=N sigma(nmr)=Y
   Nucleus:   1C 
       Hyperfine : Isotope=   13 I=   0.500 P= 134.188
       Quadrupole: Isotope=   13 I=   0.500 Q=   0.000
       Spin-Orbit: Zeff=   3.600
       rho(0)=N f(grad)=N a(iso)=N a(dip)=N a(orb)=N sigma(nmr)=Y
   Nucleus:   2C 
       Hyperfine : Isotope=   13 I=   0.500 P= 134.188
       Quadrupole: Isotope=   13 I=   0.500 Q=   0.000
       Spin-Orbit: Zeff=   3.600
       rho(0)=N f(grad)=N a(iso)=N a(dip)=N a(orb)=N sigma(nmr)=Y
   Nucleus:   3C 
       Hyperfine : Isotope=   13 I=   0.500 P= 134.188
       Quadrupole: Isotope=   13 I=   0.500 Q=   0.000
       Spin-Orbit: Zeff=   3.600
       rho(0)=N f(grad)=N a(iso)=N a(dip)=N a(orb)=N sigma(nmr)=Y
   Nucleus:   4C 
       Hyperfine : Isotope=   13 I=   0.500 P= 134.188
       Quadrupole: Isotope=   13 I=   0.500 Q=   0.000
       Spin-Orbit: Zeff=   3.600
       rho(0)=N f(grad)=N a(iso)=N a(dip)=N a(orb)=N sigma(nmr)=Y
   Nucleus:   5C 
       Hyperfine : Isotope=   13 I=   0.500 P= 134.188
       Quadrupole: Isotope=   13 I=   0.500 Q=   0.000
       Spin-Orbit: Zeff=   3.600
       rho(0)=N f(grad)=N a(iso)=N a(dip)=N a(orb)=N sigma(nmr)=Y
   Nucleus:   6H 
       Hyperfine : Isotope=    1 I=   0.500 P= 533.552
       Quadrupole: Isotope=    2 I=   1.000 Q=   0.003
       Spin-Orbit: Zeff=   1.000
       rho(0)=N f(grad)=N a(iso)=N a(dip)=N a(orb)=N sigma(nmr)=Y
   Nucleus:   7H 
       Hyperfine : Isotope=    1 I=   0.500 P= 533.552
       Quadrupole: Isotope=    2 I=   1.000 Q=   0.003
       Spin-Orbit: Zeff=   1.000
       rho(0)=N f(grad)=N a(iso)=N a(dip)=N a(orb)=N sigma(nmr)=Y
   Nucleus:   8H 
       Hyperfine : Isotope=    1 I=   0.500 P= 533.552
       Quadrupole: Isotope=    2 I=   1.000 Q=   0.003
       Spin-Orbit: Zeff=   1.000
       rho(0)=N f(grad)=N a(iso)=N a(dip)=N a(orb)=N sigma(nmr)=Y
   Nucleus:   9H 
       Hyperfine : Isotope=    1 I=   0.500 P= 533.552
       Quadrupole: Isotope=    2 I=   1.000 Q=   0.003
       Spin-Orbit: Zeff=   1.000
       rho(0)=N f(grad)=N a(iso)=N a(dip)=N a(orb)=N sigma(nmr)=Y
   Nucleus:  10H 
       Hyperfine : Isotope=    1 I=   0.500 P= 533.552
       Quadrupole: Isotope=    2 I=   1.000 Q=   0.003
       Spin-Orbit: Zeff=   1.000
       rho(0)=N f(grad)=N a(iso)=N a(dip)=N a(orb)=N sigma(nmr)=Y
   Nucleus:  11H 
       Hyperfine : Isotope=    1 I=   0.500 P= 533.552
       Quadrupole: Isotope=    2 I=   1.000 Q=   0.003
       Spin-Orbit: Zeff=   1.000
       rho(0)=N f(grad)=N a(iso)=N a(dip)=N a(orb)=N sigma(nmr)=Y
Using LibInt in CPSCF-CP

Forming RHS of the CP-SCF equations         ... 
Calculating right hand sides for GIAO treatment (new)  ... 
  Entering RightHandSide GIAO. ScalHFX=    0.0000 NeedHFX=0
     -> 1-electron GIAO integrals will be done analytically
     -> RI used in SCF and no Fock exchange. RIJK enforced by the user
     Making grid for GIAO integrations   ... done
     Test of existence of the V matrix   = 1
     Test of existence of the VCD matrix = 1
     Test of existence of the VO matrix  = 0
     Warning: RI is turned on for GIAO but the V matrix or its Cholesky decomposition are not found - making it
     Calculating V           ... done
     Cholesky decomposition  ... done
     Storing V and VCD       ... done
     Cholesky decomposition-2... done
     Storing VO              ... done
  Getting the pre-screening matrix        ... done
  Extracting occupied and virtual blocks  ... 
  Operator  0  NO=  21 NV=  93 
  One-electron GIAO integrals             ...   done
  Transforming and RHS contribution       ...   done
  Calculating F[B](P)                     ...  (RI-JK)
---------------------
RI-GIAO-TRANSFORMATION (AUX index driven)
----------------------

Dimension of the orbital-basis         ... 114
Dimension of the aux-basis             ... 360
Number of (i,a) MOs                    ... 21,93
Number of ij,ia,ab pairs               ... 441,1953,8649
Transformation of internal MOs         ...    0-  20
Transformation of internal/external MOs...    0-  20 to   21- 113

Mapping shells                                 ... done
Making shell addresses                         ... done
Figuring out significant basis function pairs  ... done
  N(Pairs)         ... 6555
  N(Strong pairs)  ... 6528
  Mem-Available    ... 1024 MB
  (p,q) per batch  ... 46598
  N(Batches)       ... 1
Preparing matrix containers                    ... done
Preparing AO buffer                            ... done
Calculating AO integrals and transforming AUX  ... done
Finished RI-GIAO integral generation and aux-index transformation in  2.905 sec
Mapping the MO pairs                            ... done
Getting memory                                  ... done
Second Phase: sorting and transformation of MO indices
Memory available                       ... 1024 MB 
Max. # Aux fcns treated in a batch     ... 360    
Initializing the MO transformation process      ... done
Batch   0: Q=   0 ...  359
   Reading      ... done
   Transforming ... done
Finished transformation of the MO indices in  0.682 sec
Initializing the sorting process                ... done

IJ-Resorting
# of internal pairs                    ... 441
# batches for internal pairs           ... 1
   (0) Reading      ... done
   (0) Writing      ... done
   (1) Reading      ... done
   (1) Writing      ... done
   (2) Reading      ... done
   (2) Writing      ... done
   (3) Reading      ... done
   (3) Writing      ... done
(ij|v) resorting done in     0.011 sec

IA-Resorting
# of internal orbitals                 ... 21
# batches for internal orbitals        ... 1
   (0) Reading      ... done
   (0) Writing      ... done
   (1) Reading      ... done
   (1) Writing      ... done
   (2) Reading      ... done
   (2) Writing      ... done
   (3) Reading      ... done
   (3) Writing      ... done
(ia|v) resorting done in     0.027 sec

  Resorting completed in     0.039 sec
RI-GIAO-Integral transformation completed in     3.670 sec
Reading RI-integrals ... done
Doing RI-JK          ... done
 => dG/dB done
  RI-JK GIAO contributions                ...   done
  DFT XC-terms                            ... done
  Transforming to MO basis/RHS contribs.  ... done
  GIAO profiling information: 
    Total GIAO time               ...       6.5 sec
       Grid setup                 ...       0.3 sec (  4.3%)
       RI-V-matrix setup          ...       0.0 sec (  0.6%)
       GIAO 1-electron integrals  ...       0.0 sec (  0.5%)
       GIAO RI-JK                 ...       1.6 sec ( 24.1%)
       GIAO RI integral trafo     ...       3.7 sec ( 56.6%)
       GIAO XC-terms              ...       0.9 sec ( 13.9%)

  GIAO right hand side done


Forming final perturbed densities           ... done
Transforming perturbed density to AO basis  ...  done

Magnetic field perturbation calculated in  6.551 sec

---------------
CHEMICAL SHIFTS
---------------

Note: using conversion factor for au to ppm alpha^2/2 =   26.625677252 
Doing GIAO para- and diamagnetic shielding integrals analytically     ...done
Doing remaining GIAO terms numerically                                ...done
 --------------
 Nucleus   0C :
 --------------

Diamagnetic contribution to the shielding tensor (ppm) : 
           257.862        -15.590       -40.418
            -4.522        270.762        22.355
            -7.828        -27.741       178.902

Paramagnetic contribution to the shielding tensor (ppm): 
          -207.393        -29.962        82.525
           -49.778       -268.560       -51.686
            64.565         15.419       -29.386

Total shielding tensor (ppm): 
            50.470        -45.552        42.106
           -54.301          2.203       -29.332
            56.737        -12.322       149.515


 Diagonalized sT*s matrix:
 
 sDSO           260.244          266.040          181.242  iso=     235.842
 sPSO          -288.274         -213.283           -3.782  iso=    -168.446
        ---------------  ---------------  ---------------
 Total          -28.030           52.757          177.460  iso=      67.396

 --------------
 Nucleus   1C :
 --------------

Diamagnetic contribution to the shielding tensor (ppm) : 
           257.064        -22.716        19.560
            -5.058        269.600        -9.750
            -8.932        -45.572       294.687

Paramagnetic contribution to the shielding tensor (ppm): 
          -190.509         41.508        32.131
            26.966       -275.511       -20.125
            73.231         -5.247      -152.088

Total shielding tensor (ppm): 
            66.554         18.792        51.692
            21.908         -5.912       -29.875
            64.299        -50.819       142.598


 Diagonalized sT*s matrix:
 
 sDSO           260.363          258.433          302.555  iso=     273.783
 sPSO          -288.598         -203.346         -126.165  iso=    -206.036
        ---------------  ---------------  ---------------
 Total          -28.235           55.086          176.390  iso=      67.747

 --------------
 Nucleus   2C :
 --------------

Diamagnetic contribution to the shielding tensor (ppm) : 
           260.224        -16.770        28.250
             1.592        265.808        -6.611
            -0.182        -31.585       317.214

Paramagnetic contribution to the shielding tensor (ppm): 
          -243.117          6.920        65.018
            -7.103       -204.587       -10.169
            80.755         13.583      -191.204

Total shielding tensor (ppm): 
            17.107         -9.849        93.268
            -5.511         61.221       -16.780
            80.574        -18.002       126.010


 Diagonalized sT*s matrix:
 
 sDSO           260.337          260.415          322.493  iso=     281.082
 sPSO          -290.934         -202.284         -145.689  iso=    -212.969
        ---------------  ---------------  ---------------
 Total          -30.597           58.131          176.803  iso=      68.113

 --------------
 Nucleus   3C :
 --------------

Diamagnetic contribution to the shielding tensor (ppm) : 
           262.835          0.490        11.789
            -3.912        261.126        -7.279
             4.333          2.870       286.825

Paramagnetic contribution to the shielding tensor (ppm): 
          -206.286        -46.935        42.020
           -43.713       -261.792        -8.176
            51.237        -12.182      -140.690

Total shielding tensor (ppm): 
            56.549        -46.445        53.809
           -47.624         -0.665       -15.455
            55.570         -9.312       146.135


 Diagonalized sT*s matrix:
 
 sDSO           259.867          262.609          288.310  iso=     270.262
 sPSO          -288.459         -209.754         -110.555  iso=    -202.922
        ---------------  ---------------  ---------------
 Total          -28.591           52.855          177.755  iso=      67.340

 --------------
 Nucleus   4C :
 --------------

Diamagnetic contribution to the shielding tensor (ppm) : 
           246.555         14.690       -46.216
             3.290        257.414        14.424
           -27.089         24.860       173.799

Paramagnetic contribution to the shielding tensor (ppm): 
          -177.036          2.988       106.488
            13.633       -260.566       -55.814
            86.296        -72.651       -36.937

Total shielding tensor (ppm): 
            69.519         17.678        60.272
            16.922         -3.152       -41.390
            59.207        -47.792       136.862


 Diagonalized sT*s matrix:
 
 sDSO           261.106          261.794          154.868  iso=     225.923
 sPSO          -290.064         -206.528           22.053  iso=    -158.180
        ---------------  ---------------  ---------------
 Total          -28.958           55.266          176.920  iso=      67.743

 --------------
 Nucleus   5C :
 --------------

Diamagnetic contribution to the shielding tensor (ppm) : 
           252.522          5.236       -52.794
             5.360        261.354        28.847
           -14.890          8.533       160.095

Paramagnetic contribution to the shielding tensor (ppm): 
          -237.379        -16.880       145.599
           -14.246       -198.441       -52.049
            92.843        -25.966       -33.585

Total shielding tensor (ppm): 
            15.142        -11.644        92.805
            -8.886         62.913       -23.202
            77.953        -17.433       126.510


 Diagonalized sT*s matrix:
 
 sDSO           261.850          264.466          147.655  iso=     224.657
 sPSO          -292.237         -206.203           29.035  iso=    -156.468
        ---------------  ---------------  ---------------
 Total          -30.387           58.262          176.690  iso=      68.188

 --------------
 Nucleus   6H :
 --------------

Diamagnetic contribution to the shielding tensor (ppm) : 
            12.365         13.555       -61.604
            11.379         20.872        25.720
           -56.273         26.260       -75.453

Paramagnetic contribution to the shielding tensor (ppm): 
            10.790        -13.318        60.950
           -10.845          5.865       -24.862
            55.466        -25.505        97.229

Total shielding tensor (ppm): 
            23.155          0.237        -0.653
             0.533         26.737         0.858
            -0.807          0.756        21.777


 Diagonalized sT*s matrix:
 
 sDSO          -110.509           41.469           26.824  iso=     -14.072
 sPSO           131.823          -17.999            0.061  iso=      37.961
        ---------------  ---------------  ---------------
 Total           21.314           23.469           26.884  iso=      23.889

 --------------
 Nucleus   7H :
 --------------

Diamagnetic contribution to the shielding tensor (ppm) : 
            22.912          8.548       -25.328
            11.099         36.883         9.865
           -20.416          4.256       -21.750

Paramagnetic contribution to the shielding tensor (ppm): 
             2.223         -9.552        22.867
           -12.403        -12.243        -9.079
            18.479         -2.520        44.655

Total shielding tensor (ppm): 
            25.135         -1.004        -2.461
            -1.305         24.640         0.786
            -1.937          1.736        22.905


 Diagonalized sT*s matrix:
 
 sDSO           -32.460           42.317           28.189  iso=      12.682
 sPSO            53.931          -18.564           -0.732  iso=      11.545
        ---------------  ---------------  ---------------
 Total           21.471           23.752           27.457  iso=      24.227

 --------------
 Nucleus   8H :
 --------------

Diamagnetic contribution to the shielding tensor (ppm) : 
            11.508          4.665       -40.044
             0.948         35.859        17.446
           -36.699         21.294       -43.127

Paramagnetic contribution to the shielding tensor (ppm): 
            13.756         -2.575        38.291
             0.630        -11.518       -17.492
            34.626        -21.056        65.604

Total shielding tensor (ppm): 
            25.264          2.089        -1.754
             1.579         24.341        -0.045
            -2.073          0.238        22.477


 Diagonalized sT*s matrix:
 
 sDSO           -62.735           39.136           27.839  iso=       1.413
 sPSO            83.922          -15.419           -0.660  iso=      22.614
        ---------------  ---------------  ---------------
 Total           21.186           23.717           27.179  iso=      24.027

 --------------
 Nucleus   9H :
 --------------

Diamagnetic contribution to the shielding tensor (ppm) : 
            42.457          2.300        16.769
             0.688         40.827        -9.490
            19.445         -8.962        63.206

Paramagnetic contribution to the shielding tensor (ppm): 
           -17.573         -3.865       -19.043
            -1.784        -16.014        10.601
           -21.900          9.742       -40.356

Total shielding tensor (ppm): 
            24.884         -1.564        -2.274
            -1.096         24.813         1.111
            -2.455          0.780        22.850


 Diagonalized sT*s matrix:
 
 sDSO            73.930           43.716           28.844  iso=      48.830
 sPSO           -52.637          -19.911           -1.394  iso=     -24.648
        ---------------  ---------------  ---------------
 Total           21.293           23.805           27.449  iso=      24.182

 --------------
 Nucleus  10H :
 --------------

Diamagnetic contribution to the shielding tensor (ppm) : 
            62.870        -11.544        44.389
            -8.754         32.751       -16.858
            41.278        -22.329       129.435

Paramagnetic contribution to the shielding tensor (ppm): 
           -39.666         12.095       -45.084
             9.356         -6.071        17.631
           -42.021         23.321      -107.818

Total shielding tensor (ppm): 
            23.204          0.551        -0.694
             0.601         26.680         0.773
            -0.743          0.992        21.618


 Diagonalized sT*s matrix:
 
 sDSO           153.847           42.469           28.740  iso=      75.019
 sPSO          -132.699          -19.001           -1.855  iso=     -51.185
        ---------------  ---------------  ---------------
 Total           21.148           23.468           26.886  iso=      23.834

 --------------
 Nucleus  11H :
 --------------

Diamagnetic contribution to the shielding tensor (ppm) : 
            43.387        -14.346        31.095
           -10.622         44.480       -11.780
            23.015        -15.189        91.214

Paramagnetic contribution to the shielding tensor (ppm): 
           -17.918         15.905       -33.132
            12.186        -20.042        12.039
           -24.747         14.405       -68.938

Total shielding tensor (ppm): 
            25.470          1.560        -2.037
             1.565         24.439         0.260
            -1.732         -0.784        22.277


 Diagonalized sT*s matrix:
 
 sDSO           107.328           42.768           28.986  iso=      59.694
 sPSO           -85.991          -19.118           -1.788  iso=     -35.632
        ---------------  ---------------  ---------------
 Total           21.337           23.650           27.198  iso=      24.062



--------------------------
CHEMICAL SHIELDING SUMMARY (ppm)
--------------------------


  Nucleus  Element    Isotropic     Anisotropy
  -------  -------  ------------   ------------
      0       C           67.396        165.097 
      1       C           67.747        162.964 
      2       C           68.113        163.036 
      3       C           67.340        165.623 
      4       C           67.743        163.766 
      5       C           68.188        162.753 
      6       H           23.889          4.493 
      7       H           24.227          4.845 
      8       H           24.027          4.727 
      9       H           24.182          4.901 
     10       H           23.834          4.577 
     11       H           24.062          4.704 



Timings for individual modules:

Sum of individual times         ...       32.812 sec (=   0.547 min)
GTO integral calculation        ...        0.172 sec (=   0.003 min)   0.5 %
SCF iterations                  ...        9.817 sec (=   0.164 min)  29.9 %
SCF-level EPR/NMR calculation   ...       22.823 sec (=   0.380 min)  69.6 %
                             ****ORCA TERMINATED NORMALLY****
TOTAL RUN TIME: 0 days 0 hours 0 minutes 32 seconds 906 msec
