46
	Energy:     200.6957707
C         -2.05227        4.03758       -0.00360
C         -1.41095        5.26222        0.00279
C          0.03563        5.38078        0.03690
C         -1.23973        2.93332       -0.00055
C          0.17944        3.04748        0.03908
C          0.97141        4.27677        0.09399
H         -2.05416        6.14298       -0.01162
H          0.40026        6.40056        0.01835
H         -1.74558        1.95887       -0.02282
H         -3.13945        3.92487       -0.01574
C          2.53869        4.16158        0.18085
C          3.05781        2.76079        0.08969
C          2.13476        1.64190        0.03311
C          0.76935        1.80867        0.01694
H          0.12884        0.91735       -0.02618
C          4.40473        2.31778        0.02477
C          4.78206        0.94666       -0.01801
C          3.84108       -0.06978       -0.02208
C          2.51341        0.28688       -0.01201
H          5.22048        3.02716        0.00273
H          5.83178        0.66373       -0.04119
H          4.12198       -1.12212       -0.03787
H          1.77322       -0.52059       -0.03228
C          3.69348        5.48387        0.08311
N          4.58452        6.37504        1.39596
H          3.23272        6.28381       -0.50260
H          4.53828        5.08468       -0.49537
C          5.77832        7.72072        1.18391
C          6.69612        8.59209        2.34893
H          5.20686        8.46304        0.61641
H          6.52606        7.25739        0.52982
C          8.04711        8.25385        2.68373
C          8.93938        9.06902        3.52940
C          8.55722       10.29225        4.09475
C          7.29325       10.72277        3.71823
C          6.39591        9.90863        2.86259
H          8.51803        7.36491        2.26930
H          9.96248        8.72471        3.72685
H          6.99167       11.72095        4.05156
H          5.47772       10.43413        2.60498
O          9.47179       10.98179        4.86866
C          9.05732       11.87869        5.78874
C          8.80880       12.67955        6.64781
H          8.64453       13.39446        7.43915
H          5.08711        5.65518        1.92565
H          3.84723        6.76200        1.99027


