
                                 *****************
                                 * O   R   C   A *
                                 *****************

           --- An Ab Initio, DFT and Semiempirical electronic structure package ---

                  #######################################################
                  #                        -***-                        #
                  #  Department of molecular theory and spectroscopy    #
                  #              Directorship: Frank Neese              #
                  # Max Planck Institute for Chemical Energy Conversion #
                  #                  D-45470 Muelheim/Ruhr              #
                  #                       Germany                       #
                  #                                                     #
                  #                  All rights reserved                #
                  #                        -***-                        #
                  #######################################################


                         Program Version 4.0.0.2 - RELEASE -


 With contributions from (in alphabetic order):
   Daniel Aravena         : Magnetic Properties
   Michael Atanasov       : Ab Initio Ligand Field Theory
   Ute Becker             : Parallelization
   Martin Brehm           : Molecular dynamics
   Dmytro Bykov           : SCF Hessian
   Vijay G. Chilkuri      : MRCI spin determinant printing
   Dipayan Datta          : RHF DLPNO-CCSD density
   Achintya Kumar Dutta   : EOM-CC, STEOM-CC
   Dmitry Ganyushin       : Spin-Orbit,Spin-Spin,Magnetic field MRCI
   Yang Guo               : DLPNO-NEVPT2, CIM, IAO-localization
   Andreas Hansen         : Spin unrestricted coupled pair/coupled cluster methods
   Lee Huntington         : MR-EOM, pCC
   Robert Izsak           : Overlap fitted RIJCOSX, COSX-SCS-MP3, EOM
   Christian Kollmar      : KDIIS, OOCD, Brueckner-CCSD(T), CCSD density
   Simone Kossmann        : Meta GGA functionals, TD-DFT gradient, OOMP2, MP2 Hessian
   Martin Krupicka        : AUTO-CI
   Dagmar Lenk            : GEPOL surface
   Dimitrios Liakos       : Extrapolation schemes; parallel MDCI
   Dimitrios Manganas     : ROCIS; embedding schemes
   Dimitrios Pantazis     : SARC Basis sets
   Taras Petrenko         : DFT Hessian,TD-DFT gradient, ASA, ECA, R-Raman, ABS, FL, XAS/XES, NRVS
   Peter Pinski           : DLPNO-MP2
   Christoph Reimann      : Effective Core Potentials
   Marius Retegan         : Local ZFS, SOC
   Christoph Riplinger    : Optimizer, TS searches, QM/MM, DLPNO-CCSD(T), (RO)-DLPNO pert. Triples
   Tobias Risthaus        : Range-separated hybrids, TD-DFT gradient, RPA, STAB
   Michael Roemelt        : Restricted open shell CIS
   Masaaki Saitow         : Open-shell DLPNO
   Barbara Sandhoefer     : DKH picture change effects
   Kantharuban Sivalingam : CASSCF convergence, NEVPT2, FIC-MRCI
   Georgi Stoychev        : AutoAux
   Boris Wezisla          : Elementary symmetry handling
   Frank Wennmohs         : Technical directorship


 We gratefully acknowledge several colleagues who have allowed us to
 interface, adapt or use parts of their codes:
   Stefan Grimme, W. Hujo, H. Kruse,             : VdW corrections, initial TS optimization,
                  C. Bannwarth                     DFT functionals, gCP, sTDA/sTD-DF
   Ed Valeev                                     : LibInt (2-el integral package), F12 methods
   Garnet Chan, S. Sharma, J. Yang, R. Olivares  : DMRG
   Ulf Ekstrom                                   : XCFun DFT Library
   Mihaly Kallay                                 : mrcc  (arbitrary order and MRCC methods)
   Jiri Pittner, Ondrej Demel                    : Mk-CCSD
   Frank Weinhold                                : gennbo (NPA and NBO analysis)
   Christopher J. Cramer and Donald G. Truhlar   : smd solvation model


 Your calculation uses the libint2 library for the computation of 2-el integrals
 For citations please refer to: http://libint.valeyev.net

 This ORCA versions uses:
   CBLAS   interface :  Fast vector & matrix operations
   LAPACKE interface :  Fast linear algebra routines
   SCALAPACK package :  Parallel linear algebra routines




*****************************************
The coordinations will be read from file: guess.xyz
*****************************************



Information: The global flag for chemical shieldings has been found
             ==>> will calculate the chemical shifts for all atoms in the system

Your calculation utilizes the basis: cc-pVDZ 
       H, B-Ne : Obtained from the ccRepo (grant-hill.group.shef.ac.uk/ccrepo) Feb. 2017
                 T. H. Dunning, Jr., J. Chem. Phys. 90, 1007 (1989)
            He : Obtained from the ccRepo (grant-hill.group.shef.ac.uk/ccrepo) Feb. 2017
                 D. E. Woon, T. H. Dunning, Jr., J. Chem. Phys. 100, 2975 (1994)
  Li-Be, Na-Mg : Obtained from the ccRepo (grant-hill.group.shef.ac.uk/ccrepo) Feb. 2017
                 B. P. Prascher, D. E. Woon, K. A. Peterson, T. H. Dunning, Jr., A. K. Wilson, Theor. Chem. Acc. 128, 69 (2011)
         Al-Ar : Obtained from the ccRepo (grant-hill.group.shef.ac.uk/ccrepo) Feb. 2017
                 D. E. Woon, T. H. Dunning, Jr., J. Chem. Phys. 98, 1358 (1993)
            Ca : Obtained from the Peterson Research Group Website (tyr0.chem.wsu.edu/~kipeters) Feb. 2017
                 J. Koput, K. A. Peterson, J. Phys. Chem. 106, 9595 (2002)
         Sc-Zn : Obtained from the ccRepo (grant-hill.group.shef.ac.uk/ccrepo) Feb. 2017
                 N. B. Balabanov, K. A. Peterson, J. Chem. Phys. 123, 064107 (2005)
                 N. B. Balabanov, K. A. Peterson, J. Chem. Phys. 125, 074110 (2006)
         Ga-Kr : Obtained from the ccRepo (grant-hill.group.shef.ac.uk/ccrepo) Feb. 2017
                 A. K. Wilson, D. E. Woon, K. A. Peterson, T. H. Dunning, Jr., J. Chem. Phys. 110, 7667 (1999)

Your calculation utilizes the auxiliary basis: def2/J
   F. Weigend, Phys. Chem. Chem. Phys. 8, 1057 (2006).

================================================================================
                                        WARNINGS
                       Please study these warnings very carefully!
================================================================================

Warning: TCutStore was < 0. Adjusted to Thresh (uncritical)

INFO   : the flag for use of LIBINT has been found!

CheckInput: checking for shifts: .
================================================================================
                                       INPUT FILE
================================================================================
NAME = /home/jan/SoftwareDevelopment/karminus/output/olyp_ccpvdz/acrylonitrile/acrylonitrile.in
|  1> !cc-pvdz OLYP NMR
|  2> 
|  3> *xyzfile 0 1 guess.xyz
|  4> 
|  5> 
|  6>                          ****END OF INPUT****
================================================================================

                       ****************************
                       * Single Point Calculation *
                       ****************************

---------------------------------
CARTESIAN COORDINATES (ANGSTROEM)
---------------------------------
  C     -4.942800    4.814740   -0.045420
  C     -5.903350    3.947980    0.298960
  H     -4.970490    5.841600    0.305710
  H     -4.110270    4.525380   -0.681470
  C     -5.904300    2.595700   -0.139080
  H     -6.723290    4.262630    0.935010
  N     -5.909270    1.491710   -0.493960

----------------------------
CARTESIAN COORDINATES (A.U.)
----------------------------
  NO LB      ZA    FRAG     MASS         X           Y           Z
   0 C     6.0000    0    12.011   -9.340538    9.098540   -0.085831
   1 C     6.0000    0    12.011  -11.155715    7.460601    0.564953
   2 H     1.0000    0     1.008   -9.392865   11.039024    0.577708
   3 H     1.0000    0     1.008   -7.767285    8.551729   -1.287792
   4 C     6.0000    0    12.011  -11.157510    4.905162   -0.262823
   5 H     1.0000    0     1.008  -12.705177    8.055203    1.766913
   6 N     7.0000    0    14.007  -11.166902    2.818923   -0.933449

--------------------------------
INTERNAL COORDINATES (ANGSTROEM)
--------------------------------
 C      0   0   0     0.000000000000     0.00000000     0.00000000
 C      1   0   0     1.338852786717     0.00000000     0.00000000
 H      1   2   0     1.085587616271   120.72186515     0.00000000
 H      1   2   3     1.086919966235   121.85024229   180.00069331
 C      2   1   3     1.421457400874   122.48628306   179.99999218
 H      2   1   3     1.084373472840   120.36532752     0.00000000
 N      5   2   1     1.159637199903   179.75617117   179.99428552

---------------------------
INTERNAL COORDINATES (A.U.)
---------------------------
 C      0   0   0     0.000000000000     0.00000000     0.00000000
 C      1   0   0     2.530065100532     0.00000000     0.00000000
 H      1   2   0     2.051463289128   120.72186515     0.00000000
 H      1   2   3     2.053981065675   121.85024229   180.00069331
 C      2   1   3     2.686165198688   122.48628306   179.99999218
 H      2   1   3     2.049168890557   120.36532752     0.00000000
 N      5   2   1     2.191396722525   179.75617117   179.99428552

---------------------
BASIS SET INFORMATION
---------------------
There are 3 groups of distinct atoms

 Group   1 Type C   : 17s4p1d contracted to 3s2p1d pattern {881/31/1}
 Group   2 Type H   : 4s1p contracted to 2s1p pattern {31/1}
 Group   3 Type N   : 17s4p1d contracted to 3s2p1d pattern {881/31/1}

Atom   0C    basis set group =>   1
Atom   1C    basis set group =>   1
Atom   2H    basis set group =>   2
Atom   3H    basis set group =>   2
Atom   4C    basis set group =>   1
Atom   5H    basis set group =>   2
Atom   6N    basis set group =>   3
-------------------------------
AUXILIARY BASIS SET INFORMATION
-------------------------------
There are 3 groups of distinct atoms

 Group   1 Type C   : 12s5p4d2f1g contracted to 6s4p3d1f1g pattern {711111/2111/211/2/1}
 Group   2 Type H   : 5s2p1d contracted to 3s1p1d pattern {311/2/1}
 Group   3 Type N   : 12s5p4d2f1g contracted to 6s4p3d1f1g pattern {711111/2111/211/2/1}

Atom   0C    basis set group =>   1
Atom   1C    basis set group =>   1
Atom   2H    basis set group =>   2
Atom   3H    basis set group =>   2
Atom   4C    basis set group =>   1
Atom   5H    basis set group =>   2
Atom   6N    basis set group =>   3
------------------------------------------------------------------------------
                           ORCA GTO INTEGRAL CALCULATION
                           -- RI-GTO INTEGRALS CHOSEN --
------------------------------------------------------------------------------

                         BASIS SET STATISTICS AND STARTUP INFO

Gaussian basis set:
 # of primitive gaussian shells          ...  103
 # of primitive gaussian functions       ...  157
 # of contracted shells                  ...   33
 # of contracted basis functions         ...   71
 Highest angular momentum                ...    2
 Maximum contraction depth               ...    8
Auxiliary gaussian basis set:
 # of primitive gaussian shells          ...  120
 # of primitive gaussian functions       ...  328
 # of contracted shells                  ...   75
 # of contracted aux-basis functions     ...  229
 Highest angular momentum                ...    4
 Maximum contraction depth               ...    7
Ratio of auxiliary to basis functions    ...  3.23
Integral package used                  ... LIBINT
 One Electron integrals                  ... done
 Ordering auxiliary basis shells         ... done
 Integral threshhold             Thresh  ...  1.000e-10
 Primitive cut-off               TCut    ...  1.000e-11
 Pre-screening matrix                    ... done
 Shell pair data                         ... 
 Ordering of the shell pairs             ... done (   0.000 sec) 560 of 561 pairs
 Determination of significant pairs      ... done (   0.000 sec)
 Creation of shell pair data             ... done (   0.001 sec)
 Storage of shell pair data              ... done (   0.000 sec)
 Shell pair data done in (   0.001 sec)
 Computing two index integrals           ... done
 Cholesky decomposition of the V-matrix  ... done


Timings:
 Total evaluation time                   ...   0.116 sec (  0.002 min)
 One electron matrix time                ...   0.006 sec (  0.000 min) =  4.9%
 Schwartz matrix evaluation time         ...   0.092 sec (  0.002 min) = 78.9%
 Two index repulsion integral time       ...   0.001 sec (  0.000 min) =  1.0%
 Cholesky decomposition of V             ...   0.001 sec (  0.000 min) =  0.5%
 Three index repulsion integral time     ...   0.000 sec (  0.000 min) =  0.0%

-------------------------------------------------------------------------------
                                 ORCA SCF
-------------------------------------------------------------------------------

------------
SCF SETTINGS
------------
Hamiltonian:
 Density Functional     Method          .... DFT(GTOs)
 Exchange Functional    Exchange        .... OPTX
 Correlation Functional Correlation     .... LYP
 Gradients option       PostSCFGGA      .... off
 RI-approximation to the Coulomb term is turned on
   Number of auxiliary basis functions  .... 229


General Settings:
 Integral files         IntName         .... /home/jan/SoftwareDevelopment/karminus/output/olyp_ccpvdz/acrylonitrile/acrylonitrile
 Hartree-Fock type      HFTyp           .... RHF
 Total Charge           Charge          ....    0
 Multiplicity           Mult            ....    1
 Number of Electrons    NEL             ....   28
 Basis Dimension        Dim             ....   71
 Nuclear Repulsion      ENuc            ....     90.2117391130 Eh

Convergence Acceleration:
 DIIS                   CNVDIIS         .... on
   Start iteration      DIISMaxIt       ....    12
   Startup error        DIISStart       ....  0.200000
   # of expansion vecs  DIISMaxEq       ....     5
   Bias factor          DIISBfac        ....   1.050
   Max. coefficient     DIISMaxC        ....  10.000
 Newton-Raphson         CNVNR           .... off
 SOSCF                  CNVSOSCF        .... on
   Start iteration      SOSCFMaxIt      ....   150
   Startup grad/error   SOSCFStart      ....  0.003300
 Level Shifting         CNVShift        .... on
   Level shift para.    LevelShift      ....    0.2500
   Turn off err/grad.   ShiftErr        ....    0.0010
 Zerner damping         CNVZerner       .... off
 Static damping         CNVDamp         .... on
   Fraction old density DampFac         ....    0.7000
   Max. Damping (<1)    DampMax         ....    0.9800
   Min. Damping (>=0)   DampMin         ....    0.0000
   Turn off err/grad.   DampErr         ....    0.1000
 Fernandez-Rico         CNVRico         .... off

SCF Procedure:
 Maximum # iterations   MaxIter         ....   125
 SCF integral mode      SCFMode         .... Direct
   Integral package                     .... LIBINT
 Reset frequeny         DirectResetFreq ....    20
 Integral Threshold     Thresh          ....  1.000e-10 Eh
 Primitive CutOff       TCut            ....  1.000e-11 Eh

Convergence Tolerance:
 Convergence Check Mode ConvCheckMode   .... Total+1el-Energy
 Convergence forced     ConvForced      .... 0
 Energy Change          TolE            ....  1.000e-06 Eh
 1-El. energy change                    ....  1.000e-03 Eh
 Orbital Gradient       TolG            ....  5.000e-05
 Orbital Rotation angle TolX            ....  5.000e-05
 DIIS Error             TolErr          ....  1.000e-06


Diagonalization of the overlap matrix:
Smallest eigenvalue                        ... 2.229e-03
Time for diagonalization                   ...    0.001 sec
Threshold for overlap eigenvalues          ... 1.000e-08
Number of eigenvalues below threshold      ... 0
Time for construction of square roots      ...    0.000 sec
Total time needed                          ...    0.001 sec

-------------------
DFT GRID GENERATION
-------------------

General Integration Accuracy     IntAcc      ...  4.340
Radial Grid Type                 RadialGrid  ... Gauss-Chebyshev
Angular Grid (max. acc.)         AngularGrid ... Lebedev-110
Angular grid pruning method      GridPruning ... 3 (G Style)
Weight generation scheme         WeightScheme... Becke
Basis function cutoff            BFCut       ...    1.0000e-10
Integration weight cutoff        WCut        ...    1.0000e-14
Grids for H and He will be reduced by one unit

# of grid points (after initial pruning)     ...   9052 (   0.0 sec)
# of grid points (after weights+screening)   ...   8783 (   0.0 sec)
nearest neighbour list constructed           ...    0.0 sec
Grid point re-assignment to atoms done       ...    0.0 sec
Grid point division into batches done        ...    0.0 sec
Reduced shell lists constructed in    0.1 sec

Total number of grid points                  ...     8783
Total number of batches                      ...      141
Average number of points per batch           ...       62
Average number of grid points per atom       ...     1255
Average number of shells per batch           ...    28.19 (85.42%)
Average number of basis functions per batch  ...    60.08 (84.62%)
Average number of large shells per batch     ...    23.84 (84.56%)
Average number of large basis fcns per batch ...    51.01 (84.90%)
Maximum spatial batch extension              ...  21.59, 24.55, 25.60 au
Average spatial batch extension              ...   4.91,  4.52,  5.01 au

Time for grid setup =    0.114 sec

------------------------------
INITIAL GUESS: MODEL POTENTIAL
------------------------------
Loading Hartree-Fock densities                     ... done
Calculating cut-offs                               ... done
Setting up the integral package                    ... done
Initializing the effective Hamiltonian             ... done
Starting the Coulomb interaction                   ... done (   0.0 sec)
Reading the grid                                   ... done
Mapping shells                                     ... done
Starting the XC term evaluation                    ... done (   0.1 sec)
  promolecular density results
     # of electrons  =     28.001164409
     EX              =    -22.760290683
     EC              =     -0.919033155
     EX+EC           =    -23.679323838
Transforming the Hamiltonian                       ... done (   0.0 sec)
Diagonalizing the Hamiltonian                      ... done (   0.0 sec)
Back transforming the eigenvectors                 ... done (   0.0 sec)
Now organizing SCF variables                       ... done
                      ------------------
                      INITIAL GUESS DONE (   0.4 sec)
                      ------------------
--------------
SCF ITERATIONS
--------------
ITER       Energy         Delta-E        Max-DP      RMS-DP      [F,P]     Damp
               ***  Starting incremental Fock matrix formation  ***
  0   -170.6874407917   0.000000000000 0.08448328  0.00430515  0.2323488 0.7000
  1   -170.7418317685  -0.054390976873 0.04582895  0.00263594  0.0691714 0.7000
                               ***Turning on DIIS***
  2   -170.7558114495  -0.013979680958 0.04885276  0.00361845  0.0381781 0.0000
  3   -170.7864675226  -0.030656073132 0.03197333  0.00200952  0.0303271 0.0000
  4   -170.7902684519  -0.003800929228 0.01231147  0.00064323  0.0424254 0.0000
  5   -170.7920501600  -0.001781708164 0.00397184  0.00022392  0.0115198 0.0000
                      *** Initiating the SOSCF procedure ***
                           *** Shutting down DIIS ***
                      *** Re-Reading the Fockian *** 
                      *** Removing any level shift *** 
ITER      Energy       Delta-E        Grad      Rot      Max-DP    RMS-DP
  6   -170.79218105  -0.0001308885  0.000551  0.000551  0.001109  0.000073
               *** Restarting incremental Fock matrix formation ***
  7   -170.79218971  -0.0000086600  0.000353  0.002063  0.001594  0.000072
  8   -170.79218256   0.0000071468  0.001243  0.001884  0.001228  0.000053
  9   -170.79219092  -0.0000083611  0.000117  0.000463  0.000431  0.000023
 10   -170.79218997   0.0000009559  0.000370  0.000363  0.000335  0.000018
 11   -170.79219104  -0.0000010697  0.000031  0.000072  0.000094  0.000005
                 **** Energy Check signals convergence ****
              ***Rediagonalizing the Fockian in SOSCF/NRSCF***

               *****************************************************
               *                     SUCCESS                       *
               *           SCF CONVERGED AFTER  12 CYCLES          *
               *****************************************************

Setting up the final grid:

General Integration Accuracy     IntAcc      ...  4.670
Radial Grid Type                 RadialGrid  ... Gauss-Chebyshev
Angular Grid (max. acc.)         AngularGrid ... Lebedev-302
Angular grid pruning method      GridPruning ... 3 (G Style)
Weight generation scheme         WeightScheme... Becke
Basis function cutoff            BFCut       ...    1.0000e-10
Integration weight cutoff        WCut        ...    1.0000e-14
Grids for H and He will be reduced by one unit

# of grid points (after initial pruning)     ...  35030 (   0.0 sec)
# of grid points (after weights+screening)   ...  33785 (   0.0 sec)
nearest neighbour list constructed           ...    0.0 sec
Grid point re-assignment to atoms done       ...    0.0 sec
Grid point division into batches done        ...    0.1 sec
Reduced shell lists constructed in    0.5 sec

Total number of grid points                  ...    33785
Total number of batches                      ...      532
Average number of points per batch           ...       63
Average number of grid points per atom       ...     4826
Average number of shells per batch           ...    25.81 (78.21%)
Average number of basis functions per batch  ...    54.91 (77.34%)
Average number of large shells per batch     ...    21.38 (82.85%)
Average number of large basis fcns per batch ...    45.61 (83.05%)
Maximum spatial batch extension              ...  20.64, 18.51, 21.46 au
Average spatial batch extension              ...   3.22,  3.06,  3.34 au

Final grid set up in    0.5 sec
Final integration                            ... done (   0.4 sec)
Change in XC energy                          ...     0.000253660
Integrated number of electrons               ...    28.000001107
Previous integrated no of electrons          ...    28.001474199

----------------
TOTAL SCF ENERGY
----------------

Total Energy       :         -170.79193737 Eh           -4647.48489 eV

Components:
Nuclear Repulsion  :           90.21173911 Eh            2454.78622 eV
Electronic Energy  :         -261.00367648 Eh           -7102.27111 eV
One Electron Energy:         -407.59281913 Eh          -11091.16447 eV
Two Electron Energy:          146.58914265 Eh            3988.89336 eV

Virial components:
Potential Energy   :         -340.60581726 Eh           -9268.35548 eV
Kinetic Energy     :          169.81387989 Eh            4620.87059 eV
Virial Ratio       :            2.00575959


DFT components:
N(Alpha)           :       14.000000553596 electrons
N(Beta)            :       14.000000553596 electrons
N(Total)           :       28.000001107192 electrons
E(X)               :      -23.250760577458 Eh       
E(C)               :       -0.927371145195 Eh       
E(XC)              :      -24.178131722653 Eh       

---------------
SCF CONVERGENCE
---------------

  Last Energy change         ...    1.0480e-08  Tolerance :   1.0000e-06
  Last MAX-Density change    ...    5.7043e-05  Tolerance :   1.0000e-05
  Last RMS-Density change    ...    2.9124e-06  Tolerance :   1.0000e-06
  Last Orbital Gradient      ...    4.3058e-05  Tolerance :   5.0000e-05
  Last Orbital Rotation      ...    4.2661e-05  Tolerance :   5.0000e-05

             **** THE GBW FILE WAS UPDATED (/home/jan/SoftwareDevelopment/karminus/output/olyp_ccpvdz/acrylonitrile/acrylonitrile.gbw) ****
             **** DENSITY FILE WAS UPDATED (/home/jan/SoftwareDevelopment/karminus/output/olyp_ccpvdz/acrylonitrile/acrylonitrile.scfp.tmp) ****
             **** ENERGY FILE WAS UPDATED (/home/jan/SoftwareDevelopment/karminus/output/olyp_ccpvdz/acrylonitrile/acrylonitrile.en.tmp) ****
----------------
ORBITAL ENERGIES
----------------

  NO   OCC          E(Eh)            E(eV) 
   0   2.0000     -14.010543      -381.2463 
   1   2.0000      -9.968611      -271.2597 
   2   2.0000      -9.954475      -270.8750 
   3   2.0000      -9.950620      -270.7701 
   4   2.0000      -0.830967       -22.6118 
   5   2.0000      -0.745778       -20.2937 
   6   2.0000      -0.596039       -16.2190 
   7   2.0000      -0.483421       -13.1546 
   8   2.0000      -0.426223       -11.5981 
   9   2.0000      -0.364938        -9.9305 
  10   2.0000      -0.336089        -9.1455 
  11   2.0000      -0.305714        -8.3189 
  12   2.0000      -0.292624        -7.9627 
  13   2.0000      -0.254469        -6.9245 
  14   0.0000      -0.083409        -2.2697 
  15   0.0000      -0.005748        -0.1564 
  16   0.0000       0.056655         1.5417 
  17   0.0000       0.060961         1.6588 
  18   0.0000       0.077942         2.1209 
  19   0.0000       0.087882         2.3914 
  20   0.0000       0.191779         5.2186 
  21   0.0000       0.252640         6.8747 
  22   0.0000       0.272725         7.4212 
  23   0.0000       0.403830        10.9888 
  24   0.0000       0.423619        11.5273 
  25   0.0000       0.443757        12.0753 
  26   0.0000       0.453615        12.3435 
  27   0.0000       0.502121        13.6634 
  28   0.0000       0.509191        13.8558 
  29   0.0000       0.539307        14.6753 
  30   0.0000       0.567002        15.4289 
  31   0.0000       0.605756        16.4835 
  32   0.0000       0.647466        17.6185 
  33   0.0000       0.666164        18.1272 
  34   0.0000       0.711167        19.3518 
  35   0.0000       0.788855        21.4658 
  36   0.0000       0.839385        22.8408 
  37   0.0000       0.869074        23.6487 
  38   0.0000       0.877560        23.8796 
  39   0.0000       0.899118        24.4662 
  40   0.0000       0.919502        25.0209 
  41   0.0000       0.965920        26.2840 
  42   0.0000       1.005564        27.3628 
  43   0.0000       1.046784        28.4844 
  44   0.0000       1.079583        29.3769 
  45   0.0000       1.145318        31.1657 
  46   0.0000       1.308747        35.6128 
  47   0.0000       1.391698        37.8700 
  48   0.0000       1.415158        38.5084 
  49   0.0000       1.438893        39.1543 
  50   0.0000       1.448965        39.4283 
  51   0.0000       1.583054        43.0771 
  52   0.0000       1.584400        43.1137 
  53   0.0000       1.610368        43.8203 
  54   0.0000       1.615148        43.9504 
  55   0.0000       1.629214        44.3332 
  56   0.0000       1.769266        48.1442 
  57   0.0000       1.816842        49.4388 
  58   0.0000       1.852602        50.4119 
  59   0.0000       1.876329        51.0575 
  60   0.0000       1.955510        53.2121 
  61   0.0000       2.022584        55.0373 
  62   0.0000       2.116188        57.5844 
  63   0.0000       2.197754        59.8039 
  64   0.0000       2.332263        63.4641 
  65   0.0000       2.516098        68.4665 
  66   0.0000       2.520649        68.5903 
  67   0.0000       2.630802        71.5878 
  68   0.0000       2.738484        74.5179 
  69   0.0000       2.794628        76.0457 
  70   0.0000       3.015584        82.0582 

                    ********************************
                    * MULLIKEN POPULATION ANALYSIS *
                    ********************************

-----------------------
MULLIKEN ATOMIC CHARGES
-----------------------
   0 C :    0.124949
   1 C :   -0.038056
   2 H :    0.020702
   3 H :    0.019597
   4 C :   -0.001608
   5 H :    0.010757
   6 N :   -0.136341
Sum of atomic charges:   -0.0000000

--------------------------------
MULLIKEN REDUCED ORBITAL CHARGES
--------------------------------
  0 C s       :     3.079710  s :     3.079710
      pz      :     0.910632  p :     2.756267
      px      :     0.938900
      py      :     0.906735
      dz2     :     0.003133  d :     0.039075
      dxz     :     0.007086
      dyz     :     0.005444
      dx2y2   :     0.015824
      dxy     :     0.007588
  1 C s       :     3.141596  s :     3.141596
      pz      :     0.972171  p :     2.828395
      px      :     0.959561
      py      :     0.896662
      dz2     :     0.006756  d :     0.068066
      dxz     :     0.008890
      dyz     :     0.012956
      dx2y2   :     0.022640
      dxy     :     0.016823
  2 H s       :     0.945986  s :     0.945986
      pz      :     0.007700  p :     0.033312
      px      :     0.005811
      py      :     0.019801
  3 H s       :     0.947227  s :     0.947227
      pz      :     0.011474  p :     0.033176
      px      :     0.014898
      py      :     0.006804
  4 C s       :     3.073872  s :     3.073872
      pz      :     0.947384  p :     2.845902
      px      :     0.945065
      py      :     0.953454
      dz2     :     0.009837  d :     0.081833
      dxz     :     0.003225
      dyz     :     0.025924
      dx2y2   :     0.015645
      dxy     :     0.027201
  5 H s       :     0.956315  s :     0.956315
      pz      :     0.012010  p :     0.032928
      px      :     0.014878
      py      :     0.006040
  6 N s       :     3.641659  s :     3.641659
      pz      :     1.071545  p :     3.456208
      px      :     1.040407
      py      :     1.344255
      dz2     :     0.004926  d :     0.038475
      dxz     :     0.001163
      dyz     :     0.011706
      dx2y2   :     0.009368
      dxy     :     0.011312


                     *******************************
                     * LOEWDIN POPULATION ANALYSIS *
                     *******************************

----------------------
LOEWDIN ATOMIC CHARGES
----------------------
   0 C :    0.032743
   1 C :   -0.068634
   2 H :    0.030730
   3 H :    0.032299
   4 C :   -0.085601
   5 H :    0.046430
   6 N :    0.012034

-------------------------------
LOEWDIN REDUCED ORBITAL CHARGES
-------------------------------
  0 C s       :     2.853864  s :     2.853864
      pz      :     0.940663  p :     2.972041
      px      :     1.007390
      py      :     1.023988
      dz2     :     0.011546  d :     0.141352
      dxz     :     0.026232
      dyz     :     0.019332
      dx2y2   :     0.052171
      dxy     :     0.032072
  1 C s       :     2.825244  s :     2.825244
      pz      :     0.981915  p :     3.033326
      px      :     1.029676
      py      :     1.021735
      dz2     :     0.018439  d :     0.210064
      dxz     :     0.029962
      dyz     :     0.038602
      dx2y2   :     0.068982
      dxy     :     0.054078
  2 H s       :     0.884948  s :     0.884948
      pz      :     0.021031  p :     0.084321
      px      :     0.016071
      py      :     0.047219
  3 H s       :     0.883338  s :     0.883338
      pz      :     0.029248  p :     0.084362
      px      :     0.036580
      py      :     0.018534
  4 C s       :     2.893891  s :     2.893891
      pz      :     0.936721  p :     2.958096
      px      :     0.905044
      py      :     1.116331
      dz2     :     0.028892  d :     0.233614
      dxz     :     0.007144
      dyz     :     0.071190
      dx2y2   :     0.062814
      dxy     :     0.063575
  5 H s       :     0.869702  s :     0.869702
      pz      :     0.029758  p :     0.083868
      px      :     0.036400
      py      :     0.017710
  6 N s       :     3.378631  s :     3.378631
      pz      :     1.071447  p :     3.535465
      px      :     1.031140
      py      :     1.432878
      dz2     :     0.009493  d :     0.073871
      dxz     :     0.001714
      dyz     :     0.021572
      dx2y2   :     0.024475
      dxy     :     0.016617


                      *****************************
                      * MAYER POPULATION ANALYSIS *
                      *****************************

  NA   - Mulliken gross atomic population
  ZA   - Total nuclear charge
  QA   - Mulliken gross atomic charge
  VA   - Mayer's total valence
  BVA  - Mayer's bonded valence
  FA   - Mayer's free valence

  ATOM       NA         ZA         QA         VA         BVA        FA
  0 C      5.8751     6.0000     0.1249     3.9549     3.9549     0.0000
  1 C      6.0381     6.0000    -0.0381     4.0674     4.0674    -0.0000
  2 H      0.9793     1.0000     0.0207     0.9683     0.9683     0.0000
  3 H      0.9804     1.0000     0.0196     0.9784     0.9784     0.0000
  4 C      6.0016     6.0000    -0.0016     4.2061     4.2061    -0.0000
  5 H      0.9892     1.0000     0.0108     0.9800     0.9800    -0.0000
  6 N      7.1363     7.0000    -0.1363     3.2461     3.2461    -0.0000

  Mayer bond orders larger than 0.1
B(  0-C ,  1-C ) :   1.9545 B(  0-C ,  2-H ) :   0.9360 B(  0-C ,  3-H ) :   0.9395 
B(  0-C ,  6-N ) :   0.1111 B(  1-C ,  4-C ) :   1.0963 B(  1-C ,  5-H ) :   0.9346 
B(  4-C ,  6-N ) :   3.0954 

-------
TIMINGS
-------

Total SCF time: 0 days 0 hours 0 min 4 sec 

Total time                  ....       4.564 sec
Sum of individual times     ....       4.557 sec  ( 99.8%)

Fock matrix formation       ....       3.676 sec  ( 80.5%)
  Split-RI-J                ....       1.814 sec  ( 49.3% of F)
  XC integration            ....       1.857 sec  ( 50.5% of F)
    Basis function eval.    ....       1.369 sec  ( 73.7% of XC)
    Density eval.           ....       0.160 sec  (  8.6% of XC)
    XC-Functional eval.     ....       0.060 sec  (  3.2% of XC)
    XC-Potential eval.      ....       0.242 sec  ( 13.0% of XC)
Diagonalization             ....       0.006 sec  (  0.1%)
Density matrix formation    ....       0.000 sec  (  0.0%)
Population analysis         ....       0.001 sec  (  0.0%)
Initial guess               ....       0.241 sec  (  5.3%)
Orbital Transformation      ....       0.000 sec  (  0.0%)
Orbital Orthonormalization  ....       0.000 sec  (  0.0%)
DIIS solution               ....       0.001 sec  (  0.0%)
SOSCF solution              ....       0.002 sec  (  0.1%)
Grid generation             ....       0.629 sec  ( 13.8%)

-------------------------   --------------------
FINAL SINGLE POINT ENERGY      -170.791937366408
-------------------------   --------------------


                            ***************************************
                            *     ORCA property calculations      *
                            ***************************************

                                    ---------------------
                                    Active property flags
                                    ---------------------
   (+) Dipole Moment
   (+) Chemical Shifts


------------------------------------------------------------------------------
                       ORCA ELECTRIC PROPERTIES CALCULATION
------------------------------------------------------------------------------

Dipole Moment Calculation                       ... on
Quadrupole Moment Calculation                   ... off
Polarizability Calculation                      ... off
GBWName                                         ... /home/jan/SoftwareDevelopment/karminus/output/olyp_ccpvdz/acrylonitrile/acrylonitrile.gbw
Electron density file                           ... /home/jan/SoftwareDevelopment/karminus/output/olyp_ccpvdz/acrylonitrile/acrylonitrile.scfp.tmp

-------------
DIPOLE MOMENT
-------------
                                X             Y             Z
Electronic contribution:     -0.95583      -3.23628      -0.42531
Nuclear contribution   :      1.07791       4.58903       0.78663
                        -----------------------------------------
Total Dipole Moment    :      0.12208       1.35275       0.36132
                        -----------------------------------------
Magnitude (a.u.)       :      1.40549
Magnitude (Debye)      :      3.57247

------------------------------------------------------------------------------
                                ORCA EPR/NMR CALCULATION
------------------------------------------------------------------------------

GBWName                      ... /home/jan/SoftwareDevelopment/karminus/output/olyp_ccpvdz/acrylonitrile/acrylonitrile.gbw
Electron density file        ... /home/jan/SoftwareDevelopment/karminus/output/olyp_ccpvdz/acrylonitrile/acrylonitrile.scfp.tmp
Spin density file            ... /home/jan/SoftwareDevelopment/karminus/output/olyp_ccpvdz/acrylonitrile/acrylonitrile.scfr.tmp
Treatment of gauge           ... GIAO (approximations 1/2el = 0,3)
Details of the CP(SCF) procedure:
       Solver   = POPLE   
       MaxIter  =    64   
       Tolerance=    1.000e-06
       Op-0     =   0- 13 =>  14- 70
Multiplicity                 ... 1
g-tensor                     ... 0
NMR chemical shifts          ... 1
Number of nuclei for epr/nmr ... 7
   Nucleus:   0C 
       Hyperfine : Isotope=   13 I=   0.500 P= 134.188
       Quadrupole: Isotope=   13 I=   0.500 Q=   0.000
       Spin-Orbit: Zeff=   3.600
       rho(0)=N f(grad)=N a(iso)=N a(dip)=N a(orb)=N sigma(nmr)=Y
   Nucleus:   1C 
       Hyperfine : Isotope=   13 I=   0.500 P= 134.188
       Quadrupole: Isotope=   13 I=   0.500 Q=   0.000
       Spin-Orbit: Zeff=   3.600
       rho(0)=N f(grad)=N a(iso)=N a(dip)=N a(orb)=N sigma(nmr)=Y
   Nucleus:   2H 
       Hyperfine : Isotope=    1 I=   0.500 P= 533.552
       Quadrupole: Isotope=    2 I=   1.000 Q=   0.003
       Spin-Orbit: Zeff=   1.000
       rho(0)=N f(grad)=N a(iso)=N a(dip)=N a(orb)=N sigma(nmr)=Y
   Nucleus:   3H 
       Hyperfine : Isotope=    1 I=   0.500 P= 533.552
       Quadrupole: Isotope=    2 I=   1.000 Q=   0.003
       Spin-Orbit: Zeff=   1.000
       rho(0)=N f(grad)=N a(iso)=N a(dip)=N a(orb)=N sigma(nmr)=Y
   Nucleus:   4C 
       Hyperfine : Isotope=   13 I=   0.500 P= 134.188
       Quadrupole: Isotope=   13 I=   0.500 Q=   0.000
       Spin-Orbit: Zeff=   3.600
       rho(0)=N f(grad)=N a(iso)=N a(dip)=N a(orb)=N sigma(nmr)=Y
   Nucleus:   5H 
       Hyperfine : Isotope=    1 I=   0.500 P= 533.552
       Quadrupole: Isotope=    2 I=   1.000 Q=   0.003
       Spin-Orbit: Zeff=   1.000
       rho(0)=N f(grad)=N a(iso)=N a(dip)=N a(orb)=N sigma(nmr)=Y
   Nucleus:   6N 
       Hyperfine : Isotope=   14 I=   1.000 P=  38.571
       Quadrupole: Isotope=   14 I=   1.000 Q=   0.020
       Spin-Orbit: Zeff=   4.550
       rho(0)=N f(grad)=N a(iso)=N a(dip)=N a(orb)=N sigma(nmr)=Y
Using LibInt in CPSCF-CP

Forming RHS of the CP-SCF equations         ... 
Calculating right hand sides for GIAO treatment (new)  ... 
  Entering RightHandSide GIAO. ScalHFX=    0.0000 NeedHFX=0
     -> 1-electron GIAO integrals will be done analytically
     -> RI used in SCF and no Fock exchange. RIJK enforced by the user
     Making grid for GIAO integrations   ... done
     Test of existence of the V matrix   = 1
     Test of existence of the VCD matrix = 1
     Test of existence of the VO matrix  = 0
     Warning: RI is turned on for GIAO but the V matrix or its Cholesky decomposition are not found - making it
     Calculating V           ... done
     Cholesky decomposition  ... done
     Storing V and VCD       ... done
     Cholesky decomposition-2... done
     Storing VO              ... done
  Getting the pre-screening matrix        ... done
  Extracting occupied and virtual blocks  ... 
  Operator  0  NO=  14 NV=  57 
  One-electron GIAO integrals             ...   done
  Transforming and RHS contribution       ...   done
  Calculating F[B](P)                     ...  (RI-JK)
---------------------
RI-GIAO-TRANSFORMATION (AUX index driven)
----------------------

Dimension of the orbital-basis         ... 71
Dimension of the aux-basis             ... 229
Number of (i,a) MOs                    ... 14,57
Number of ij,ia,ab pairs               ... 196,798,3249
Transformation of internal MOs         ...    0-  13
Transformation of internal/external MOs...    0-  13 to   14-  70

Mapping shells                                 ... done
Making shell addresses                         ... done
Figuring out significant basis function pairs  ... done
  N(Pairs)         ... 2556
  N(Strong pairs)  ... 2553
  Mem-Available    ... 1024 MB
  (p,q) per batch  ... 73259
  N(Batches)       ... 1
Preparing matrix containers                    ... done
Preparing AO buffer                            ... done
Calculating AO integrals and transforming AUX  ... done
Finished RI-GIAO integral generation and aux-index transformation in  0.781 sec
Mapping the MO pairs                            ... done
Getting memory                                  ... done
Second Phase: sorting and transformation of MO indices
Memory available                       ... 1024 MB 
Max. # Aux fcns treated in a batch     ... 229    
Initializing the MO transformation process      ... done
Batch   0: Q=   0 ...  228
   Reading      ... done
   Transforming ... done
Finished transformation of the MO indices in  0.104 sec
Initializing the sorting process                ... done

IJ-Resorting
# of internal pairs                    ... 196
# batches for internal pairs           ... 1
   (0) Reading      ... done
   (0) Writing      ... done
   (1) Reading      ... done
   (1) Writing      ... done
   (2) Reading      ... done
   (2) Writing      ... done
   (3) Reading      ... done
   (3) Writing      ... done
(ij|v) resorting done in     0.003 sec

IA-Resorting
# of internal orbitals                 ... 14
# batches for internal orbitals        ... 1
   (0) Reading      ... done
   (0) Writing      ... done
   (1) Reading      ... done
   (1) Writing      ... done
   (2) Reading      ... done
   (2) Writing      ... done
   (3) Reading      ... done
   (3) Writing      ... done
(ia|v) resorting done in     0.006 sec

  Resorting completed in     0.010 sec
RI-GIAO-Integral transformation completed in     0.939 sec
Reading RI-integrals ... done
Doing RI-JK          ... done
 => dG/dB done
  RI-JK GIAO contributions                ...   done
  DFT XC-terms                            ... done
  Transforming to MO basis/RHS contribs.  ... done
  GIAO profiling information: 
    Total GIAO time               ...       1.6 sec
       Grid setup                 ...       0.1 sec (  7.1%)
       RI-V-matrix setup          ...       0.0 sec (  2.2%)
       GIAO 1-electron integrals  ...       0.0 sec (  1.3%)
       GIAO RI-JK                 ...       0.2 sec ( 13.9%)
       GIAO RI integral trafo     ...       0.9 sec ( 58.5%)
       GIAO XC-terms              ...       0.3 sec ( 16.9%)

  GIAO right hand side done


Forming final perturbed densities           ... done
Transforming perturbed density to AO basis  ...  done

Magnetic field perturbation calculated in  1.672 sec

---------------
CHEMICAL SHIFTS
---------------

Note: using conversion factor for au to ppm alpha^2/2 =   26.625677252 
Doing GIAO para- and diamagnetic shielding integrals analytically     ...done
Doing remaining GIAO terms numerically                                ...done
 --------------
 Nucleus   0C :
 --------------

Diamagnetic contribution to the shielding tensor (ppm) : 
           248.041          8.206       -20.502
            -3.109        262.964        -9.837
             8.972         -9.077       267.766

Paramagnetic contribution to the shielding tensor (ppm): 
          -173.760          3.998        89.640
            31.114       -257.712       -63.587
            65.111        -54.193      -161.720

Total shielding tensor (ppm): 
            74.281         12.204        69.139
            28.005          5.252       -73.424
            74.083        -63.271       106.046


 Diagonalized sT*s matrix:
 
 sDSO           258.061          260.239          260.471  iso=     259.590
 sPSO          -280.668         -226.785          -85.740  iso=    -197.731
        ---------------  ---------------  ---------------
 Total          -22.607           33.454          174.731  iso=      61.860

 --------------
 Nucleus   1C :
 --------------

Diamagnetic contribution to the shielding tensor (ppm) : 
           255.531          4.722        -6.419
            10.273        263.465        11.666
           -20.487         12.265       240.043

Paramagnetic contribution to the shielding tensor (ppm): 
          -154.748         21.407        60.480
            16.096       -216.758       -69.406
            74.818        -69.510      -122.974

Total shielding tensor (ppm): 
           100.783         26.129        54.061
            26.369         46.707       -57.740
            54.331        -57.245       117.069


 Diagonalized sT*s matrix:
 
 sDSO           266.106          265.591          227.342  iso=     253.013
 sPSO          -275.400         -162.743          -56.336  iso=    -164.827
        ---------------  ---------------  ---------------
 Total           -9.294          102.848          171.006  iso=      88.186

 --------------
 Nucleus   2H :
 --------------

Diamagnetic contribution to the shielding tensor (ppm) : 
            19.936          4.102       -11.008
            -4.726         43.675        -7.726
           -11.374         10.063         6.566

Paramagnetic contribution to the shielding tensor (ppm): 
             6.881         -1.684        11.209
             6.889        -19.076         5.898
            11.482        -12.062        18.632

Total shielding tensor (ppm): 
            26.817          2.418         0.200
             2.163         24.599        -1.828
             0.108         -1.999        25.198


 Diagonalized sT*s matrix:
 
 sDSO            36.041            2.862           31.274  iso=      23.392
 sPSO           -13.876           23.054           -2.740  iso=       2.146
        ---------------  ---------------  ---------------
 Total           22.164           25.916           28.534  iso=      25.538

 --------------
 Nucleus   3H :
 --------------

Diamagnetic contribution to the shielding tensor (ppm) : 
            34.759         -0.115        -8.314
            -2.770         28.037        -1.408
            18.114        -13.227        68.796

Paramagnetic contribution to the shielding tensor (ppm): 
            -8.652          1.858         8.637
             7.171         -2.709        -1.576
           -16.948         12.003       -44.248

Total shielding tensor (ppm): 
            26.107          1.742         0.324
             4.402         25.328        -2.983
             1.166         -1.224        24.547


 Diagonalized sT*s matrix:
 
 sDSO            34.354           64.360           32.877  iso=      43.864
 sPSO           -13.073          -38.649           -3.887  iso=     -18.536
        ---------------  ---------------  ---------------
 Total           21.282           25.711           28.989  iso=      25.327

 --------------
 Nucleus   4C :
 --------------

Diamagnetic contribution to the shielding tensor (ppm) : 
           251.801         -1.408         5.507
             4.622        281.667        17.662
            10.259          6.101       269.187

Paramagnetic contribution to the shielding tensor (ppm): 
          -264.919          4.689        -6.595
            -2.789        -25.408        69.570
           -11.819         80.254      -256.508

Total shielding tensor (ppm): 
           -13.118          3.281        -1.088
             1.833        256.259        87.232
            -1.561         86.355        12.679


 Diagonalized sT*s matrix:
 
 sDSO           248.780          266.420          287.454  iso=     267.551
 sPSO          -260.624         -282.789           -3.422  iso=    -182.278
        ---------------  ---------------  ---------------
 Total          -11.843          -16.369          284.032  iso=      85.273

 --------------
 Nucleus   5H :
 --------------

Diamagnetic contribution to the shielding tensor (ppm) : 
            35.632         -2.796        -6.369
             0.486         28.243         8.510
           -34.406         17.892        -8.876

Paramagnetic contribution to the shielding tensor (ppm): 
            -9.241          3.805         5.143
             1.519         -1.194        -8.843
            33.512        -17.571        33.583

Total shielding tensor (ppm): 
            26.391          1.008        -1.226
             2.004         27.049        -0.333
            -0.894          0.321        24.707


 Diagonalized sT*s matrix:
 
 sDSO           -16.630           41.200           30.428  iso=      18.333
 sPSO            40.648          -15.462           -2.037  iso=       7.716
        ---------------  ---------------  ---------------
 Total           24.018           25.737           28.391  iso=      26.049

 --------------
 Nucleus   6N :
 --------------

Diamagnetic contribution to the shielding tensor (ppm) : 
           344.016         -1.220         4.101
             3.190        341.417         5.247
             5.943         -2.731       351.289

Paramagnetic contribution to the shielding tensor (ppm): 
          -485.072          4.530        -5.556
            -5.293       -142.778       107.551
            -9.183        111.925      -458.670

Total shielding tensor (ppm): 
          -141.056          3.309        -1.455
            -2.102        198.639       112.798
            -3.239        109.193      -107.380


 Diagonalized sT*s matrix:
 
 sDSO           341.572          352.058          343.092  iso=     345.574
 sPSO          -480.644         -496.974         -108.902  iso=    -362.173
        ---------------  ---------------  ---------------
 Total         -139.072         -144.916          234.190  iso=     -16.599



--------------------------
CHEMICAL SHIELDING SUMMARY (ppm)
--------------------------


  Nucleus  Element    Isotropic     Anisotropy
  -------  -------  ------------   ------------
      0       C           61.860        169.307 
      1       C           88.186        124.229 
      2       H           25.538          4.494 
      3       H           25.327          5.493 
      4       C           85.273        298.139 
      5       H           26.049          3.513 
      6       N          -16.599        376.184 



Timings for individual modules:

Sum of individual times         ...        9.124 sec (=   0.152 min)
GTO integral calculation        ...        0.130 sec (=   0.002 min)   1.4 %
SCF iterations                  ...        4.574 sec (=   0.076 min)  50.1 %
SCF-level EPR/NMR calculation   ...        4.420 sec (=   0.074 min)  48.4 %
                             ****ORCA TERMINATED NORMALLY****
TOTAL RUN TIME: 0 days 0 hours 0 minutes 9 seconds 212 msec
