16
	Energy:       7.8434933
C        -15.04471        2.46967        8.08080
C        -14.00460        1.77438        7.46731
C        -12.85846        2.45566        7.05221
C        -12.73920        3.83710        7.25716
C        -13.79598        4.53207        7.86100
C        -14.93434        3.84141        8.27128
O        -15.97796        4.48492        8.86912
C        -11.52161        4.57060        6.77764
H        -11.32987        5.45541        7.39371
H        -11.65994        4.88620        5.73900
H        -10.63303        3.93359        6.83970
H        -15.75810        5.42799        8.93895
H        -15.93887        1.94555        8.40499
H        -14.08791        0.70245        7.30981
H        -12.05766        1.90107        6.56790
H        -13.71966        5.60554        8.00547


