21
	Energy:      26.9178838
C         -0.78655       -0.31394       -1.09411
C         -0.05270        1.93450       -0.21133
C          0.42927        0.55636       -0.71336
C          1.01018        0.88832       -2.09105
H          1.11657        0.06320       -0.02293
C         -1.29796        0.33116       -2.39906
H         -0.47660       -1.34748       -1.28611
C         -0.29923        1.47722       -2.62663
H          1.34041        0.00104       -2.64233
C         -0.57576        2.48682       -1.51949
H         -0.84479        1.85954        0.53628
H          1.82957        1.61450       -2.04076
H         -1.27269       -0.39876       -3.21599
H         -2.32751        0.68844       -2.28642
H          0.77918        2.55072        0.13951
H         -1.55432       -0.32664       -0.31406
O         -1.15160        3.55574       -1.64814
C         -0.24933        2.04613       -4.02076
H          0.04387        1.28318       -4.74930
H          0.46970        2.87008       -4.08554
H         -1.22666        2.44142       -4.31806
