22
	Energy:      27.6462104
C         -0.76584        2.76547       -1.20090
C          0.53462        3.88343       -3.01926
C          0.52701        2.70534       -2.03113
C          0.25536        1.51806       -2.95538
H          1.43303        2.63536       -1.42618
C         -1.84800        2.36549       -2.21523
H         -0.73446        2.04045       -0.37973
C         -1.03850        2.12486       -3.50764
H          0.09931        0.57799       -2.41499
C         -0.54337        3.48706       -4.03944
H          1.50808        3.96829       -3.51537
H          1.03041        1.37843       -3.71689
H         -2.35537        1.45306       -1.88069
H         -1.34474        4.23129       -4.09538
H         -0.09812        3.39356       -5.03688
H         -2.60425        3.14852       -2.33427
H          0.31281        4.84040       -2.53647
H         -0.94748        3.75696       -0.77428
C         -1.76362        1.28967       -4.53973
H         -1.13109        1.10668       -5.41488
H         -2.05084        0.31596       -4.12881
H         -2.67399        1.79361       -4.88095
