22
	Energy:      27.6462104
C         -0.82746        0.33059       -1.04184
C          0.54402        2.28274       -0.29647
C          0.56506        0.76764       -0.55789
C          1.38943        0.67897       -1.84250
H          0.93922        0.18305        0.28473
C         -0.90241        0.91914       -2.45885
H         -0.89873       -0.76213       -1.08480
C          0.46224        1.62452       -2.61289
H          1.42619       -0.33229       -2.26216
C          0.47349        2.87757       -1.71108
H          1.46629        2.60423        0.20054
H          2.40814        1.06541       -1.72849
H         -1.02584        0.11379       -3.19237
H         -0.41721        3.49988       -1.84748
H          1.35470        3.50222       -1.89860
H         -1.74551        1.60919       -2.56938
H         -0.30353        2.59217        0.32319
H         -1.63266        0.70031       -0.39916
C          0.85357        1.89770       -4.04843
H          1.84783        2.35323       -4.10686
H          0.87782        0.97253       -4.63403
H          0.14150        2.57982       -4.52472
