18
	Energy:      20.4816886
C         -0.54617        1.84862       -1.98750
C          0.54166        3.02177       -0.03256
C          0.45587        1.69797       -0.82323
C          1.78974        1.67638       -1.57437
H          0.26011        0.82977       -0.19067
C          0.19636        2.76363       -2.98405
H         -0.74881        0.87706       -2.45232
C          1.53910        3.00426       -2.28841
H          1.88229        0.83057       -2.26381
C          1.22677        3.86789       -1.08279
H          1.18809        2.92986        0.84398
H          2.35324        3.38228       -2.90520
H          2.65437        1.70035       -0.90183
H          0.33338        2.24766       -3.94053
H         -0.35816        3.69077       -3.16353
H         -0.43972        3.42339        0.22729
H         -1.49965        2.27993       -1.66651
O          1.44747        5.06509       -0.99169
