18
	Energy:      20.4821948
C          0.33563        2.11095       -1.79670
C          0.39400        4.38927       -0.70629
C          1.22747        3.32151       -1.44806
C          1.42434        3.95740       -2.82673
H          2.14477        3.04869       -0.92244
C         -0.57058        2.64587       -2.92559
H          0.94237        1.27743       -2.16855
C         -0.07261        4.08230       -3.10864
H          1.93981        3.29985       -3.53473
C         -0.49061        4.82282       -1.85416
H          1.01043        5.23072       -0.37976
H         -0.34958        4.58620       -4.03363
H          1.94001        4.92286       -2.77745
H         -0.42507        2.05736       -3.83784
H         -1.62793        2.59852       -2.64421
H         -0.19197        3.97258        0.11537
H         -0.24382        1.75626       -0.93849
O         -1.42308        5.60626       -1.77058
