20
	Energy:      41.1247599
C         -0.88296        0.47991       -1.22147
C          0.77069        2.18596       -0.59940
C          0.61460        0.71311       -0.92347
C          1.24973        0.72509       -2.32556
H          1.07403        0.03672       -0.20183
C         -1.09444        1.26816       -2.54442
H         -1.10211       -0.58294       -1.36869
C          0.31333        1.83884       -2.82802
C          0.59052        2.86303       -1.74514
H          0.49615        2.18924       -3.84442
H         -1.42593        0.59679       -3.34344
H         -1.85056        2.05260       -2.42728
H         -1.53427        0.85249       -0.42303
H          0.58261        3.93506       -1.87047
H          0.93760        2.60436        0.38145
C          1.21909       -0.58847       -3.09532
H          2.29760        1.06154       -2.29021
H          0.21644       -0.99875       -3.23703
H          1.81184       -1.34484       -2.57025
H          1.65612       -0.44835       -4.08966
