20
	Energy:      41.1117661
C         -0.37962        0.62139       -1.29323
C          0.44054        2.76467       -0.42125
C          0.88205        1.36491       -0.80103
C          1.61559        1.71021       -2.10953
H          1.47860        0.85425       -0.04426
C         -0.72098        1.36608       -2.61430
H         -0.17239       -0.43566       -1.49047
C          0.39172        2.43456       -2.69858
C          0.14565        3.40820       -1.56280
H          0.54085        2.90004       -3.67348
H         -0.68251        0.67723       -3.46472
H         -1.72435        1.80509       -2.57996
H         -1.20668        0.67574       -0.57651
H         -0.24869        4.40811       -1.65998
H          0.33109        3.14355        0.58336
C          2.16212        0.53711       -2.91201
H          2.45074        2.40585       -1.93320
H          1.41723       -0.22603       -3.14965
H          2.96675        0.04555       -2.35508
H          2.57775        0.89396       -3.86025
