21
	Energy:      24.7725634
C         -0.21129       -0.12236       -0.80016
C          1.63816        1.65392       -1.03200
C          1.30669        0.15736       -0.77912
C          1.72757       -0.47964       -2.10995
H          1.80911       -0.24937        0.10160
C         -0.59222        0.07725       -2.28155
H         -0.40915       -1.16027       -0.50645
C          0.75948        0.35885       -2.94504
H          1.51730       -1.55334       -2.16050
C          1.16463        1.74231       -2.47332
H          0.81474        0.22781       -4.02483
H          2.78082       -0.30033       -2.35293
H         -1.04894       -0.83460       -2.68085
H         -1.29990        0.90435       -2.40247
H         -0.78572        0.52335       -0.13115
O          1.07085        2.76689       -3.13097
C          0.94839        2.64527       -0.11813
H          2.72440        1.80035       -1.01559
H          1.12620        2.39837        0.93297
H         -0.13149        2.69045       -0.29124
H          1.33457        3.65444       -0.29929
