21
	Energy:      25.2785301
C         -0.88428        0.52638       -1.12875
C          0.60659        2.44721       -0.45099
C          0.56513        0.94113       -0.78516
C          1.24192        0.89445       -2.15858
H          1.02388        0.31757       -0.01505
C         -1.09412        1.10038       -2.55191
H         -0.96959       -0.56621       -1.15636
C          0.22993        1.83855       -2.81490
H          1.24684       -0.10683       -2.60221
C          0.33107        2.99160       -1.83408
H          1.60050        2.76305       -0.12367
H          0.44240        2.11287       -3.84778
H          2.26229        1.29361       -2.14164
H         -0.16747        2.74606        0.25855
H         -1.60631        0.90478       -0.39774
O          0.17415        4.17080       -2.10928
C         -2.34541        1.95440       -2.68709
H         -1.17659        0.26206       -3.25672
H         -2.37566        2.76365       -1.95069
H         -3.24100        1.34194       -2.53851
H         -2.40188        2.39981       -3.68552
