21
	Energy:      24.9055657
C         -0.92948        0.56448       -1.31314
C          0.25668        2.75177       -0.65911
C          0.32908        1.19904       -0.68825
C          1.34797        0.95113       -1.80891
H          0.59844        0.76459        0.27735
C         -0.83799        0.98279       -2.79456
H         -0.87857       -0.52852       -1.23569
C          0.52517        1.68175       -2.86965
H          1.49137       -0.11071       -2.03605
C          0.34394        3.00550       -2.15481
H          0.97651        1.77296       -3.85665
H          2.31915        1.41853       -1.61155
H         -0.87275        0.09985       -3.44083
H         -1.66390        1.64874       -3.06789
H         -1.86296        0.88337       -0.84256
O          0.23654        4.09300       -2.70026
C         -0.99887        3.33913       -0.04640
H          1.15664        3.15634       -0.18217
H         -1.88158        3.17515       -0.67376
H         -0.89290        4.42424        0.06020
H         -1.18920        2.91679        0.94463
