21
	Energy:      36.1265405
C         -0.85947        0.49734       -1.20815
C          0.60817        2.46339       -0.49903
C          0.57777        0.94466       -0.76902
C          1.33425        0.84916       -2.08220
H          1.00620        0.36355        0.05919
C         -1.14314        1.17858       -2.59955
H         -0.84643       -0.59916       -1.29921
C          0.31005        1.78521       -2.84283
H          1.42832       -0.17952       -2.45522
C          0.42767        2.94506       -1.91242
H          1.57128        2.80170       -0.10193
H          0.66895        1.95964       -3.86165
H          2.36317        1.25204       -1.98439
H         -0.22333        2.77412        0.13243
H         -1.59241        0.78483       -0.45498
O          0.31387        4.13470       -2.26313
C         -2.55950        2.04320       -2.60304
H         -1.24117        0.40205       -3.37304
H         -2.53144        2.80485       -1.77871
H         -3.42054        1.31008       -2.51237
H         -2.72990        2.58178       -3.56882
