21
	Energy:      25.2783656
C         -0.19750        1.30564       -0.23755
C          2.26680        1.85214       -0.24792
C          1.20935        0.79208       -0.62187
C          1.17598        0.89135       -2.15012
H          1.43399       -0.19854       -0.22122
C         -0.50607        2.35893       -1.33034
H         -0.92776        0.49010       -0.29597
C          0.79070        2.37382       -2.15828
H          0.41727        0.24704       -2.60686
C          1.90804        2.89978       -1.27701
H          3.28311        1.49296       -0.42889
H          0.74068        2.84237       -3.14071
H          2.15110        0.69238       -2.60873
H          2.14629        2.23169        0.76860
H         -0.22499        1.71367        0.77814
O          2.41115        4.00933       -1.35855
C         -0.93031        3.70928       -0.77353
H         -1.32210        1.97879       -1.95958
H         -1.06067        4.43565       -1.58212
H         -1.88394        3.61862       -0.24287
H         -0.19895        4.11380       -0.06674
