20
	Energy:      25.6905111
C         -0.74478        0.40978       -1.17144
C          0.53125        2.44331       -0.46809
C          0.63730        0.93080       -0.74569
C          1.40595        0.89832       -2.06725
H          1.08363        0.36627        0.07524
C         -0.90540        0.98256       -2.58644
H         -0.75693       -0.68545       -1.20484
C          0.39100        1.79386       -2.78464
H          1.48024       -0.10514       -2.49975
C          0.42255        3.04841       -1.88167
H          1.44696        2.80131        0.01771
H          0.61371        2.00259       -3.83374
H          2.40456        1.34248       -1.99789
H         -0.95851        0.16444       -3.31457
H         -1.81709        1.57703       -2.69127
H         -0.31335        2.68610        0.18599
H         -1.54383        0.73986       -0.50012
C         -0.73188        3.93771       -2.04703
H          1.33736        3.61850       -2.09151
N         -1.64196        4.64570       -2.17743
