21
	Energy:      27.9779723
C         -0.73105        0.38924       -1.18885
C          0.53242        2.43289       -0.51758
C          0.64103        0.90082       -0.73652
C          1.44432        0.82617       -2.03175
H          1.05797        0.33736        0.10710
C         -0.84597        0.93333       -2.61698
H         -0.76981       -0.70140       -1.20757
C          0.46347        1.72798       -2.80481
H          1.51244       -0.19283       -2.43342
C          0.29806        3.02641       -1.96837
H          1.47916        2.77109       -0.05960
H          0.73889        1.90011       -3.84419
H          2.46187        1.23687       -1.94047
H         -0.92914        0.12189       -3.34403
H         -1.73406        1.53093       -2.74636
H         -0.27499        2.70134        0.16419
H         -1.53735        0.75286       -0.53707
N         -0.96286        3.77604       -2.29935
H          1.16826        3.71568       -2.09869
H         -1.84429        3.20881       -2.23868
H         -1.03578        4.10125       -3.27935
