19
	Energy:      24.6818063
C          0.29985       -0.00074       -1.28707
C          2.21900        1.13074       -0.14565
C          1.58698       -0.23397       -0.47655
C          2.53490       -0.77128       -1.54786
H          1.44518       -0.87469        0.39583
C          0.83076        0.47604       -2.64779
H         -0.25904       -0.93564       -1.40792
C          2.35406        0.45041       -2.45110
H          2.18607       -1.70252       -2.00653
C          2.75476        1.59199       -1.50618
H          3.03626        1.02274        0.57546
H          2.93061        0.42192       -3.37760
H          3.56226       -0.89903       -1.19100
H          0.52672       -0.22197       -3.43591
H          0.45775        1.47130       -2.90936
H          1.48150        1.82933        0.26205
H         -0.36331        0.73593       -0.82278
F          4.11122        1.66025       -1.44472
H          2.37319        2.57079       -1.80994
