20
	Energy:      24.5120880
C         -0.72575        0.36840       -1.24504
C          0.50541        2.37757       -0.38662
C          0.62403        0.87545       -0.70847
C          1.47776        0.89339       -1.97406
H          1.01706        0.28142        0.11886
C         -0.79769        0.99361       -2.64642
H         -0.73014       -0.72481       -1.32054
C          0.50694        1.80777       -2.72773
H          1.58577       -0.09396       -2.43570
C          0.38135        3.02594       -1.78176
H          1.39518        2.72342        0.15326
H          0.80150        2.05271       -3.75124
H          2.46807        1.33458       -1.82223
H         -0.81290        0.20675       -3.40920
H         -1.69146        1.61165       -2.77731
H         -0.37006        2.59073        0.23634
H         -1.56853        0.67091       -0.61552
C          1.44197        4.01682       -2.02512
H         -0.59310        3.51539       -1.89531
N          2.27671        4.79932       -2.21839
