21
	Energy:      24.5158996
C         -0.86003        0.40358       -1.29475
C          0.43699        2.31285       -0.27298
C          0.47248        0.79972       -0.61934
C          1.43034        0.72726       -1.81410
H          0.73276        0.15911        0.22630
C         -0.76704        1.06602       -2.68565
H         -0.92920       -0.68494       -1.40329
C          0.62439        1.70620       -2.66519
H          1.48924       -0.27331       -2.25618
C          0.53532        2.86190       -1.68672
H          1.05449        1.97587       -3.62887
H          2.44039        1.07966       -1.58370
H         -0.84247        0.30654       -3.47127
H         -1.56616        1.80048       -2.83172
H         -1.73531        0.74628       -0.73397
O          0.50010        4.04363       -1.99275
C          1.59427        2.77629        0.59252
H         -0.52259        2.59336        0.17289
H          2.56634        2.59550        0.12319
H          1.58119        2.26560        1.56053
H          1.52381        3.85393        0.77588
