19
	Energy:      24.6818743
C         -0.72067        0.39652       -1.20012
C          0.55534        2.42778       -0.48461
C          0.65120        0.91041       -0.72890
C          1.46613        0.84801       -2.02001
H          1.05995        0.35494        0.11728
C         -0.83446        0.97010       -2.62095
H         -0.73564       -0.69874       -1.23421
C          0.48633        1.73607       -2.78968
H          1.54705       -0.16340       -2.43206
C          0.45183        2.99144       -1.90671
H          1.45366        2.80433        0.01624
H          0.76704        1.93337       -3.82596
H          2.46473        1.28662       -1.92225
H         -0.90981        0.15592       -3.35049
H         -1.71156        1.61479       -2.73565
H         -0.31849        2.68497        0.12235
H         -1.53993        0.72929       -0.55504
F          1.55489        3.74362       -2.16326
H         -0.43402        3.61420       -2.05964
