21
	Energy:      25.2755305
C         -0.73016        0.33604       -1.12707
C          0.57156        2.44473       -0.59824
C          0.64443        0.90639       -0.71172
C          1.45051        0.71057       -1.99741
H          1.06012        0.42860        0.17785
C         -0.88437        0.79761       -2.59939
H         -0.72769       -0.75728       -1.04836
C          0.46439        1.48913       -2.87039
H          1.55192       -0.34007       -2.28665
C          0.41424        2.77404       -2.06642
H          1.50772        2.86863       -0.22590
H          0.75464        1.63447       -3.91061
H          2.44330        1.17188       -1.94728
H         -0.28768        2.78526       -0.01718
H         -1.53932        0.72001       -0.49711
O          0.22405        3.88983       -2.52367
C         -1.15315       -0.36271       -3.54871
H         -1.71418        1.51164       -2.67860
H         -0.36388       -1.11990       -3.50480
H         -1.21891       -0.00534       -4.58151
H         -2.10100       -0.85050       -3.29870
