21
	Energy:      20.4713964
C         -0.60200        0.87089       -1.28851
C          0.61749        2.89736       -0.46822
C          0.74925        1.39315       -0.77344
C          1.59098        1.40011       -2.04943
H          1.15486        0.81223        0.05712
C         -0.69672        1.48921       -2.69063
H         -0.59678       -0.22267       -1.35891
C          0.60755        2.30115       -2.80088
H          1.69706        0.40781       -2.50072
C          0.49997        3.53173       -1.87130
H          1.50510        3.25172        0.07025
H          0.87966        2.53543       -3.83294
H          2.58122        1.84612       -1.91250
H         -0.72780        0.69871       -3.44911
H         -1.59087        2.10942       -2.80839
H         -0.25672        3.12277        0.15193
H         -1.43956        1.16825       -0.64966
N          1.59097        4.47323       -2.10230
H         -0.45643        4.05160       -1.99452
H          1.51510        4.85943       -3.04225
H          1.50604        5.25905       -1.45902
