21
	Energy:      25.6330906
C         -0.68709        0.53894       -1.17955
C          1.77135        1.08842       -1.37344
C          0.74589       -0.05933       -1.21847
C          0.79133       -0.71031       -2.60540
H          0.97568       -0.72512       -0.38347
C         -0.93728        0.93714       -2.65811
C          0.38181        0.56329       -3.34287
H          0.07465       -1.52753       -2.73115
C          1.42790        1.50785       -2.78567
H          2.80023        0.72079       -1.33922
H          0.37203        0.50649       -4.43054
H          1.79398       -1.06284       -2.87273
H         -1.77192        0.37607       -3.09283
H         -1.15729        2.00689       -2.74416
H          1.60909        1.90115       -0.66280
O          1.88601        2.47988       -3.36493
C         -1.72697       -0.45209       -0.66785
H         -0.71754        1.42716       -0.53667
H         -1.50391       -0.74256        0.36399
H         -1.76167       -1.36305       -1.27344
H         -2.72473       -0.00108       -0.68300
