15
	Energy:      53.7495662
C         -1.34029        0.05219        0.23881
C         -0.50946        2.36568        0.43753
C         -0.34550        1.05728       -0.31853
C         -1.13127        1.44772       -1.57911
H          0.66904        0.70896       -0.50530
C         -2.57390        0.51963       -0.04496
C         -2.39105        1.83231       -0.78916
H         -1.28646        0.61395       -2.27759
C         -1.74303        2.83313        0.15363
H         -3.22111        2.18289       -1.40038
H         -0.68631        2.28507       -2.13407
H         -2.21188        3.71652        0.55723
H          0.20974        2.79904        1.11433
H         -3.51664        0.08318        0.24461
H         -1.09500       -0.83433        0.80185
