19
	Energy:      19.7783953
C         -0.73145        0.39860       -1.18460
C          0.59580        2.40264       -0.49178
C          0.65540        0.88430       -0.73019
C          1.45696        0.80234       -2.02874
H          1.06194        0.32338        0.11347
C         -0.84588        0.96631       -2.60742
H         -0.77154       -0.69619       -1.21193
C          0.48965        1.70672       -2.79155
H          1.51448       -0.21177       -2.43797
C          0.48145        2.97031       -1.91461
H          1.51696        2.75930       -0.01725
H          0.74442        1.89889       -3.83550
H          2.46448        1.22259       -1.94208
H         -0.94208        0.14965       -3.33180
H         -0.42509        3.56917       -2.04735
H          1.34661        3.60503       -2.13718
H         -1.71206        1.62611       -2.71902
H         -0.24947        2.69716        0.13818
H         -1.53633        0.75404       -0.53352
