15
	Energy:      70.0782049
C          1.06283       -1.10968       -3.50960
C          0.18189       -0.60249       -2.38570
C          1.68160       -0.62315       -2.24147
C          2.16165        0.62452       -2.96370
H          2.26289       -1.29605       -1.64328
C          1.53797        0.12524       -4.22444
H          1.19660       -2.13055       -3.80746
C          0.90728        1.28286       -3.47704
H          2.08524        0.17913       -5.14442
H          3.15569        1.02440       -2.98648
C         -0.30131        0.80505       -2.69053
H         -0.45733       -1.25543       -1.82190
H         -0.44933        1.38980       -1.77874
H         -1.20702        0.79912       -3.30279
H          0.90376        2.28218       -3.86965
