15
	Energy:      70.0782065
C         -0.57024        0.98386       -1.03903
C          0.31225        2.11327       -0.54701
C          0.87758        0.73529       -0.77496
C          1.12922        0.65799       -2.27144
H          1.16522        0.02413       -0.02660
C         -0.32122        0.90717       -2.52022
H         -1.31107        0.45644       -0.47179
C          0.69227        1.99633       -2.80834
H         -0.84524        0.31285       -3.24201
H          1.63329       -0.11959       -2.80977
C          0.67970        3.03343       -1.69846
H          0.20668        2.53439        0.43499
H          1.66375        3.48811       -1.55661
H         -0.08382        3.79768       -1.86629
H          0.91966        2.31497       -3.80812
