20
	Energy:      40.2511194
C         -0.41859        0.42654       -1.13918
C          0.33796        2.68229       -0.53153
C          0.81625        1.25887       -0.72182
C          1.54411        1.38032       -2.07339
H          1.40727        0.85600        0.10139
C         -0.74821        0.99163       -2.55184
H         -0.16999       -0.63839       -1.20954
C          0.34349        2.06935       -2.74797
C          0.05384        3.16957       -1.74961
H          0.50332        2.40577       -3.77295
H         -0.65855        0.19920       -3.30339
H         -1.76328        1.40067       -2.59847
H         -1.26188        0.54103       -0.44953
H         -0.35837        4.14025       -1.97888
H          0.20018        3.18285        0.41460
C          2.85529        2.16182       -2.06666
H          1.74264        0.39362       -2.51441
H          2.76922        3.16733       -1.64439
H          3.23347        2.26651       -3.08905
H          3.60844        1.62356       -1.48158
