
                                 *****************
                                 * O   R   C   A *
                                 *****************

           --- An Ab Initio, DFT and Semiempirical electronic structure package ---

                  #######################################################
                  #                        -***-                        #
                  #  Department of molecular theory and spectroscopy    #
                  #              Directorship: Frank Neese              #
                  # Max Planck Institute for Chemical Energy Conversion #
                  #                  D-45470 Muelheim/Ruhr              #
                  #                       Germany                       #
                  #                                                     #
                  #                  All rights reserved                #
                  #                        -***-                        #
                  #######################################################


                         Program Version 4.0.0.2 - RELEASE -


 With contributions from (in alphabetic order):
   Daniel Aravena         : Magnetic Properties
   Michael Atanasov       : Ab Initio Ligand Field Theory
   Ute Becker             : Parallelization
   Martin Brehm           : Molecular dynamics
   Dmytro Bykov           : SCF Hessian
   Vijay G. Chilkuri      : MRCI spin determinant printing
   Dipayan Datta          : RHF DLPNO-CCSD density
   Achintya Kumar Dutta   : EOM-CC, STEOM-CC
   Dmitry Ganyushin       : Spin-Orbit,Spin-Spin,Magnetic field MRCI
   Yang Guo               : DLPNO-NEVPT2, CIM, IAO-localization
   Andreas Hansen         : Spin unrestricted coupled pair/coupled cluster methods
   Lee Huntington         : MR-EOM, pCC
   Robert Izsak           : Overlap fitted RIJCOSX, COSX-SCS-MP3, EOM
   Christian Kollmar      : KDIIS, OOCD, Brueckner-CCSD(T), CCSD density
   Simone Kossmann        : Meta GGA functionals, TD-DFT gradient, OOMP2, MP2 Hessian
   Martin Krupicka        : AUTO-CI
   Dagmar Lenk            : GEPOL surface
   Dimitrios Liakos       : Extrapolation schemes; parallel MDCI
   Dimitrios Manganas     : ROCIS; embedding schemes
   Dimitrios Pantazis     : SARC Basis sets
   Taras Petrenko         : DFT Hessian,TD-DFT gradient, ASA, ECA, R-Raman, ABS, FL, XAS/XES, NRVS
   Peter Pinski           : DLPNO-MP2
   Christoph Reimann      : Effective Core Potentials
   Marius Retegan         : Local ZFS, SOC
   Christoph Riplinger    : Optimizer, TS searches, QM/MM, DLPNO-CCSD(T), (RO)-DLPNO pert. Triples
   Tobias Risthaus        : Range-separated hybrids, TD-DFT gradient, RPA, STAB
   Michael Roemelt        : Restricted open shell CIS
   Masaaki Saitow         : Open-shell DLPNO
   Barbara Sandhoefer     : DKH picture change effects
   Kantharuban Sivalingam : CASSCF convergence, NEVPT2, FIC-MRCI
   Georgi Stoychev        : AutoAux
   Boris Wezisla          : Elementary symmetry handling
   Frank Wennmohs         : Technical directorship


 We gratefully acknowledge several colleagues who have allowed us to
 interface, adapt or use parts of their codes:
   Stefan Grimme, W. Hujo, H. Kruse,             : VdW corrections, initial TS optimization,
                  C. Bannwarth                     DFT functionals, gCP, sTDA/sTD-DF
   Ed Valeev                                     : LibInt (2-el integral package), F12 methods
   Garnet Chan, S. Sharma, J. Yang, R. Olivares  : DMRG
   Ulf Ekstrom                                   : XCFun DFT Library
   Mihaly Kallay                                 : mrcc  (arbitrary order and MRCC methods)
   Jiri Pittner, Ondrej Demel                    : Mk-CCSD
   Frank Weinhold                                : gennbo (NPA and NBO analysis)
   Christopher J. Cramer and Donald G. Truhlar   : smd solvation model


 Your calculation uses the libint2 library for the computation of 2-el integrals
 For citations please refer to: http://libint.valeyev.net

 This ORCA versions uses:
   CBLAS   interface :  Fast vector & matrix operations
   LAPACKE interface :  Fast linear algebra routines
   SCALAPACK package :  Parallel linear algebra routines




*****************************************
The coordinations will be read from file: guess.xyz
*****************************************



Information: The global flag for chemical shieldings has been found
             ==>> will calculate the chemical shifts for all atoms in the system

Your calculation utilizes the basis: cc-pVDZ 
       H, B-Ne : Obtained from the ccRepo (grant-hill.group.shef.ac.uk/ccrepo) Feb. 2017
                 T. H. Dunning, Jr., J. Chem. Phys. 90, 1007 (1989)
            He : Obtained from the ccRepo (grant-hill.group.shef.ac.uk/ccrepo) Feb. 2017
                 D. E. Woon, T. H. Dunning, Jr., J. Chem. Phys. 100, 2975 (1994)
  Li-Be, Na-Mg : Obtained from the ccRepo (grant-hill.group.shef.ac.uk/ccrepo) Feb. 2017
                 B. P. Prascher, D. E. Woon, K. A. Peterson, T. H. Dunning, Jr., A. K. Wilson, Theor. Chem. Acc. 128, 69 (2011)
         Al-Ar : Obtained from the ccRepo (grant-hill.group.shef.ac.uk/ccrepo) Feb. 2017
                 D. E. Woon, T. H. Dunning, Jr., J. Chem. Phys. 98, 1358 (1993)
            Ca : Obtained from the Peterson Research Group Website (tyr0.chem.wsu.edu/~kipeters) Feb. 2017
                 J. Koput, K. A. Peterson, J. Phys. Chem. 106, 9595 (2002)
         Sc-Zn : Obtained from the ccRepo (grant-hill.group.shef.ac.uk/ccrepo) Feb. 2017
                 N. B. Balabanov, K. A. Peterson, J. Chem. Phys. 123, 064107 (2005)
                 N. B. Balabanov, K. A. Peterson, J. Chem. Phys. 125, 074110 (2006)
         Ga-Kr : Obtained from the ccRepo (grant-hill.group.shef.ac.uk/ccrepo) Feb. 2017
                 A. K. Wilson, D. E. Woon, K. A. Peterson, T. H. Dunning, Jr., J. Chem. Phys. 110, 7667 (1999)

Your calculation utilizes the auxiliary basis: def2/J
   F. Weigend, Phys. Chem. Chem. Phys. 8, 1057 (2006).

================================================================================
                                        WARNINGS
                       Please study these warnings very carefully!
================================================================================

Warning: TCutStore was < 0. Adjusted to Thresh (uncritical)

INFO   : the flag for use of LIBINT has been found!

CheckInput: checking for shifts: .
================================================================================
                                       INPUT FILE
================================================================================
NAME = /home/jan/SoftwareDevelopment/karminus/output/bp86_ccpvdz/chlorobenzene/chlorobenzene.in
|  1> !cc-pvdz BP86 NMR
|  2> 
|  3> *xyzfile 0 1 guess.xyz
|  4> 
|  5> 
|  6>                          ****END OF INPUT****
================================================================================

                       ****************************
                       * Single Point Calculation *
                       ****************************

---------------------------------
CARTESIAN COORDINATES (ANGSTROEM)
---------------------------------
  C    -19.489940    2.338740   10.545380
  C    -18.250820    2.310330    9.903550
  C    -17.510240    3.484990    9.764500
  C    -18.006500    4.688960   10.266290
  C    -19.245430    4.719270   10.908420
  C    -19.982230    3.543570   11.045310
  H    -20.064060    1.422520   10.652030
  H    -19.629000    5.658190   11.297980
  H    -17.428450    5.603180   10.157220
  H    -16.544910    3.462110    9.264330
  H    -17.862920    1.373220    9.512140
  Cl   -21.509870    3.579770   11.836840

----------------------------
CARTESIAN COORDINATES (A.U.)
----------------------------
  NO LB      ZA    FRAG     MASS         X           Y           Z
   0 C     6.0000    0    12.011  -36.830649    4.419578   19.927880
   1 C     6.0000    0    12.011  -34.489052    4.365891   18.714997
   2 C     6.0000    0    12.011  -33.089558    6.585677   18.452231
   3 C     6.0000    0    12.011  -34.027354    8.860850   19.400477
   4 C     6.0000    0    12.011  -36.368592    8.918128   20.613926
   5 C     6.0000    0    12.011  -37.760942    6.696377   20.872611
   6 H     1.0000    0     1.008  -37.915579    2.688173   20.129419
   7 H     1.0000    0     1.008  -37.093434   10.692430   21.350088
   8 H     1.0000    0     1.008  -32.934997   10.588476   19.194364
   9 H     1.0000    0     1.008  -31.265349    6.542440   17.507047
  10 H     1.0000    0     1.008  -33.756027    2.595010   17.975340
  11 Cl   17.0000    0    35.453  -40.647763    6.764785   22.368386

--------------------------------
INTERNAL COORDINATES (ANGSTROEM)
--------------------------------
 C      0   0   0     0.000000000000     0.00000000     0.00000000
 C      1   0   0     1.395769053748     0.00000000     0.00000000
 C      2   1   0     1.395571479538   119.98621537     0.00000000
 C      3   2   1     1.395568326023   120.10718384     0.00000000
 C      4   3   2     1.395778341249   119.98594392     0.00000000
 C      5   4   3     1.394232262609   119.73143725     0.00000000
 H      1   2   3     1.086483817321   119.80755952   180.00005467
 H      5   4   3     1.086486863657   119.80717395   179.99983681
 H      4   3   2     1.087122934999   120.02280756   179.99965109
 H      3   2   1     1.087453691980   119.94625544   180.00012254
 H      2   1   3     1.087126188720   119.99163230   179.99992437
 Cl     6   5   4     1.720905038199   119.77103225   179.99986201

---------------------------
INTERNAL COORDINATES (A.U.)
---------------------------
 C      0   0   0     0.000000000000     0.00000000     0.00000000
 C      1   0   0     2.637621257786     0.00000000     0.00000000
 C      2   1   0     2.637247896638   119.98621537     0.00000000
 C      3   2   1     2.637241937359   120.10718384     0.00000000
 C      4   3   2     2.637638808620   119.98594392     0.00000000
 C      5   4   3     2.634717143409   119.73143725     0.00000000
 H      1   2   3     2.053156863674   119.80755952   180.00005467
 H      5   4   3     2.053162620415   119.80717395   179.99983681
 H      4   3   2     2.054364621052   120.02280756   179.99965109
 H      3   2   1     2.054989661163   119.94625544   180.00012254
 H      2   1   3     2.054370769694   119.99163230   179.99992437
 Cl     6   5   4     3.252039224682   119.77103225   179.99986201

---------------------
BASIS SET INFORMATION
---------------------
There are 3 groups of distinct atoms

 Group   1 Type C   : 17s4p1d contracted to 3s2p1d pattern {881/31/1}
 Group   2 Type H   : 4s1p contracted to 2s1p pattern {31/1}
 Group   3 Type Cl  : 34s15p1d contracted to 4s3p1d pattern {1111111/771/1}

Atom   0C    basis set group =>   1
Atom   1C    basis set group =>   1
Atom   2C    basis set group =>   1
Atom   3C    basis set group =>   1
Atom   4C    basis set group =>   1
Atom   5C    basis set group =>   1
Atom   6H    basis set group =>   2
Atom   7H    basis set group =>   2
Atom   8H    basis set group =>   2
Atom   9H    basis set group =>   2
Atom  10H    basis set group =>   2
Atom  11Cl   basis set group =>   3
-------------------------------
AUXILIARY BASIS SET INFORMATION
-------------------------------
There are 3 groups of distinct atoms

 Group   1 Type C   : 12s5p4d2f1g contracted to 6s4p3d1f1g pattern {711111/2111/211/2/1}
 Group   2 Type H   : 5s2p1d contracted to 3s1p1d pattern {311/2/1}
 Group   3 Type Cl  : 14s5p5d2f1g contracted to 8s4p3d1f1g pattern {71111111/2111/311/2/1}

Atom   0C    basis set group =>   1
Atom   1C    basis set group =>   1
Atom   2C    basis set group =>   1
Atom   3C    basis set group =>   1
Atom   4C    basis set group =>   1
Atom   5C    basis set group =>   1
Atom   6H    basis set group =>   2
Atom   7H    basis set group =>   2
Atom   8H    basis set group =>   2
Atom   9H    basis set group =>   2
Atom  10H    basis set group =>   2
Atom  11Cl   basis set group =>   3
------------------------------------------------------------------------------
                           ORCA GTO INTEGRAL CALCULATION
                           -- RI-GTO INTEGRALS CHOSEN --
------------------------------------------------------------------------------

                         BASIS SET STATISTICS AND STARTUP INFO

Gaussian basis set:
 # of primitive gaussian shells          ...  207
 # of primitive gaussian functions       ...  323
 # of contracted shells                  ...   59
 # of contracted basis functions         ...  127
 Highest angular momentum                ...    2
 Maximum contraction depth               ...   11
Auxiliary gaussian basis set:
 # of primitive gaussian shells          ...  211
 # of primitive gaussian functions       ...  577
 # of contracted shells                  ...  132
 # of contracted aux-basis functions     ...  400
 Highest angular momentum                ...    4
 Maximum contraction depth               ...    7
Ratio of auxiliary to basis functions    ...  3.15
Integral package used                  ... LIBINT
 One Electron integrals                  ... done
 Ordering auxiliary basis shells         ... done
 Integral threshhold             Thresh  ...  1.000e-10
 Primitive cut-off               TCut    ...  1.000e-11
 Pre-screening matrix                    ... done
 Shell pair data                         ... 
 Ordering of the shell pairs             ... done (   0.000 sec) 1750 of 1770 pairs
 Determination of significant pairs      ... done (   0.000 sec)
 Creation of shell pair data             ... done (   0.003 sec)
 Storage of shell pair data              ... done (   0.001 sec)
 Shell pair data done in (   0.004 sec)
 Computing two index integrals           ... done
 Cholesky decomposition of the V-matrix  ... done


Timings:
 Total evaluation time                   ...   0.359 sec (  0.006 min)
 One electron matrix time                ...   0.019 sec (  0.000 min) =  5.4%
 Schwartz matrix evaluation time         ...   0.306 sec (  0.005 min) = 85.2%
 Two index repulsion integral time       ...   0.006 sec (  0.000 min) =  1.8%
 Cholesky decomposition of V             ...   0.002 sec (  0.000 min) =  0.6%
 Three index repulsion integral time     ...   0.000 sec (  0.000 min) =  0.0%

-------------------------------------------------------------------------------
                                 ORCA SCF
-------------------------------------------------------------------------------

------------
SCF SETTINGS
------------
Hamiltonian:
 Density Functional     Method          .... DFT(GTOs)
 Exchange Functional    Exchange        .... B88
   X-Alpha parameter    XAlpha          ....  0.666667
   Becke's b parameter  XBeta           ....  0.004200
 Correlation Functional Correlation     .... P86
 LDA part of GGA corr.  LDAOpt          .... PW91-LDA
 Gradients option       PostSCFGGA      .... off
 RI-approximation to the Coulomb term is turned on
   Number of auxiliary basis functions  .... 400


General Settings:
 Integral files         IntName         .... /home/jan/SoftwareDevelopment/karminus/output/bp86_ccpvdz/chlorobenzene/chlorobenzene
 Hartree-Fock type      HFTyp           .... RHF
 Total Charge           Charge          ....    0
 Multiplicity           Mult            ....    1
 Number of Electrons    NEL             ....   58
 Basis Dimension        Dim             ....  127
 Nuclear Repulsion      ENuc            ....    315.9872757373 Eh

Convergence Acceleration:
 DIIS                   CNVDIIS         .... on
   Start iteration      DIISMaxIt       ....    12
   Startup error        DIISStart       ....  0.200000
   # of expansion vecs  DIISMaxEq       ....     5
   Bias factor          DIISBfac        ....   1.050
   Max. coefficient     DIISMaxC        ....  10.000
 Newton-Raphson         CNVNR           .... off
 SOSCF                  CNVSOSCF        .... on
   Start iteration      SOSCFMaxIt      ....   150
   Startup grad/error   SOSCFStart      ....  0.003300
 Level Shifting         CNVShift        .... on
   Level shift para.    LevelShift      ....    0.2500
   Turn off err/grad.   ShiftErr        ....    0.0010
 Zerner damping         CNVZerner       .... off
 Static damping         CNVDamp         .... on
   Fraction old density DampFac         ....    0.7000
   Max. Damping (<1)    DampMax         ....    0.9800
   Min. Damping (>=0)   DampMin         ....    0.0000
   Turn off err/grad.   DampErr         ....    0.1000
 Fernandez-Rico         CNVRico         .... off

SCF Procedure:
 Maximum # iterations   MaxIter         ....   125
 SCF integral mode      SCFMode         .... Direct
   Integral package                     .... LIBINT
 Reset frequeny         DirectResetFreq ....    20
 Integral Threshold     Thresh          ....  1.000e-10 Eh
 Primitive CutOff       TCut            ....  1.000e-11 Eh

Convergence Tolerance:
 Convergence Check Mode ConvCheckMode   .... Total+1el-Energy
 Convergence forced     ConvForced      .... 0
 Energy Change          TolE            ....  1.000e-06 Eh
 1-El. energy change                    ....  1.000e-03 Eh
 Orbital Gradient       TolG            ....  5.000e-05
 Orbital Rotation angle TolX            ....  5.000e-05
 DIIS Error             TolErr          ....  1.000e-06


Diagonalization of the overlap matrix:
Smallest eigenvalue                        ... 3.463e-04
Time for diagonalization                   ...    0.003 sec
Threshold for overlap eigenvalues          ... 1.000e-08
Number of eigenvalues below threshold      ... 0
Time for construction of square roots      ...    0.001 sec
Total time needed                          ...    0.003 sec

-------------------
DFT GRID GENERATION
-------------------

General Integration Accuracy     IntAcc      ...  4.340
Radial Grid Type                 RadialGrid  ... Gauss-Chebyshev
Angular Grid (max. acc.)         AngularGrid ... Lebedev-110
Angular grid pruning method      GridPruning ... 3 (G Style)
Weight generation scheme         WeightScheme... Becke
Basis function cutoff            BFCut       ...    1.0000e-10
Integration weight cutoff        WCut        ...    1.0000e-14
Grids for H and He will be reduced by one unit

# of grid points (after initial pruning)     ...  15750 (   0.0 sec)
# of grid points (after weights+screening)   ...  14788 (   0.0 sec)
nearest neighbour list constructed           ...    0.0 sec
Grid point re-assignment to atoms done       ...    0.0 sec
Grid point division into batches done        ...    0.0 sec
Reduced shell lists constructed in    0.4 sec

Total number of grid points                  ...    14788
Total number of batches                      ...      237
Average number of points per batch           ...       62
Average number of grid points per atom       ...     1232
Average number of shells per batch           ...    47.74 (80.91%)
Average number of basis functions per batch  ...   102.10 (80.39%)
Average number of large shells per batch     ...    37.50 (78.56%)
Average number of large basis fcns per batch ...    81.15 (79.48%)
Maximum spatial batch extension              ...  19.49, 22.17, 25.60 au
Average spatial batch extension              ...   4.47,  4.14,  4.84 au

Time for grid setup =    0.434 sec

------------------------------
INITIAL GUESS: MODEL POTENTIAL
------------------------------
Loading Hartree-Fock densities                     ... done
Calculating cut-offs                               ... done
Setting up the integral package                    ... done
Initializing the effective Hamiltonian             ... done
Starting the Coulomb interaction                   ... done (   0.3 sec)
Reading the grid                                   ... done
Mapping shells                                     ... done
Starting the XC term evaluation                    ... done (   0.5 sec)
  promolecular density results
     # of electrons  =     57.989499275
     EX              =    -59.851906632
     EC              =     -2.231157695
     EX+EC           =    -62.083064327
Transforming the Hamiltonian                       ... done (   0.0 sec)
Diagonalizing the Hamiltonian                      ... done (   0.0 sec)
Back transforming the eigenvectors                 ... done (   0.0 sec)
Now organizing SCF variables                       ... done
                      ------------------
                      INITIAL GUESS DONE (   1.3 sec)
                      ------------------
--------------
SCF ITERATIONS
--------------
ITER       Energy         Delta-E        Max-DP      RMS-DP      [F,P]     Damp
               ***  Starting incremental Fock matrix formation  ***
  0   -691.7887778396   0.000000000000 0.04132126  0.00212271  0.1126606 0.7000
  1   -691.8471088393  -0.058330999713 0.02860715  0.00152997  0.0519754 0.7000
                               ***Turning on DIIS***
  2   -691.8677211359  -0.020612296607 0.04171552  0.00231154  0.0167626 0.0000
  3   -691.8961423394  -0.028421203500 0.01929274  0.00115909  0.0370175 0.0000
  4   -691.9065718251  -0.010429485739 0.00970099  0.00038296  0.0079453 0.0000
                      *** Initiating the SOSCF procedure ***
                           *** Shutting down DIIS ***
                      *** Re-Reading the Fockian *** 
                      *** Removing any level shift *** 
ITER      Energy       Delta-E        Grad      Rot      Max-DP    RMS-DP
  5   -691.90721832  -0.0006464978  0.001572  0.001572  0.002140  0.000118
               *** Restarting incremental Fock matrix formation ***
  6   -691.90726026  -0.0000419328  0.000471  0.002461  0.002124  0.000107
  7   -691.90724956   0.0000106967  0.001265  0.002026  0.001536  0.000057
  8   -691.90726711  -0.0000175497  0.000344  0.001781  0.000887  0.000038
  9   -691.90726607   0.0000010419  0.000392  0.000814  0.000576  0.000021
 10   -691.90726810  -0.0000020356  0.000044  0.000093  0.000271  0.000008
 11   -691.90726814  -0.0000000342  0.000046  0.000063  0.000108  0.000004
                 **** Energy Check signals convergence ****
              ***Rediagonalizing the Fockian in SOSCF/NRSCF***

               *****************************************************
               *                     SUCCESS                       *
               *           SCF CONVERGED AFTER  12 CYCLES          *
               *****************************************************

Setting up the final grid:

General Integration Accuracy     IntAcc      ...  4.670
Radial Grid Type                 RadialGrid  ... Gauss-Chebyshev
Angular Grid (max. acc.)         AngularGrid ... Lebedev-302
Angular grid pruning method      GridPruning ... 3 (G Style)
Weight generation scheme         WeightScheme... Becke
Basis function cutoff            BFCut       ...    1.0000e-10
Integration weight cutoff        WCut        ...    1.0000e-14
Grids for H and He will be reduced by one unit

# of grid points (after initial pruning)     ...  60980 (   0.0 sec)
# of grid points (after weights+screening)   ...  56742 (   0.1 sec)
nearest neighbour list constructed           ...    0.0 sec
Grid point re-assignment to atoms done       ...    0.0 sec
Grid point division into batches done        ...    0.2 sec
Reduced shell lists constructed in    1.5 sec

Total number of grid points                  ...    56742
Total number of batches                      ...      895
Average number of points per batch           ...       63
Average number of grid points per atom       ...     4728
Average number of shells per batch           ...    43.30 (73.39%)
Average number of basis functions per batch  ...    92.46 (72.81%)
Average number of large shells per batch     ...    33.18 (76.63%)
Average number of large basis fcns per batch ...    71.62 (77.45%)
Maximum spatial batch extension              ...  18.40, 18.34, 20.24 au
Average spatial batch extension              ...   2.84,  2.73,  2.99 au

Final grid set up in    1.6 sec
Final integration                            ... done (   1.4 sec)
Change in XC energy                          ...    -0.000680008
Integrated number of electrons               ...    58.000060304
Previous integrated no of electrons          ...    57.994816352

----------------
TOTAL SCF ENERGY
----------------

Total Energy       :         -691.90794818 Eh          -18827.77246 eV

Components:
Nuclear Repulsion  :          315.98727574 Eh            8598.45091 eV
Electronic Energy  :        -1007.89522392 Eh          -27426.22337 eV
One Electron Energy:        -1573.47282928 Eh          -42816.37243 eV
Two Electron Energy:          565.57760536 Eh           15390.14906 eV

Virial components:
Potential Energy   :        -1381.15600219 Eh          -37583.16551 eV
Kinetic Energy     :          689.24805401 Eh           18755.39306 eV
Virial Ratio       :            2.00385912


DFT components:
N(Alpha)           :       29.000030151773 electrons
N(Beta)            :       29.000030151773 electrons
N(Total)           :       58.000060303547 electrons
E(X)               :      -60.485530831482 Eh       
E(C)               :       -2.237964250397 Eh       
E(XC)              :      -62.723495081879 Eh       

---------------
SCF CONVERGENCE
---------------

  Last Energy change         ...   -3.4888e-08  Tolerance :   1.0000e-06
  Last MAX-Density change    ...    5.8483e-05  Tolerance :   1.0000e-05
  Last RMS-Density change    ...    1.9002e-06  Tolerance :   1.0000e-06
  Last Orbital Gradient      ...    9.6382e-06  Tolerance :   5.0000e-05
  Last Orbital Rotation      ...    5.2507e-05  Tolerance :   5.0000e-05

             **** THE GBW FILE WAS UPDATED (/home/jan/SoftwareDevelopment/karminus/output/bp86_ccpvdz/chlorobenzene/chlorobenzene.gbw) ****
             **** DENSITY FILE WAS UPDATED (/home/jan/SoftwareDevelopment/karminus/output/bp86_ccpvdz/chlorobenzene/chlorobenzene.scfp.tmp) ****
             **** ENERGY FILE WAS UPDATED (/home/jan/SoftwareDevelopment/karminus/output/bp86_ccpvdz/chlorobenzene/chlorobenzene.en.tmp) ****
----------------
ORBITAL ENERGIES
----------------

  NO   OCC          E(Eh)            E(eV) 
   0   2.0000    -100.739886     -2741.2717 
   1   2.0000      -9.975135      -271.4372 
   2   2.0000      -9.928977      -270.1812 
   3   2.0000      -9.928775      -270.1757 
   4   2.0000      -9.928464      -270.1672 
   5   2.0000      -9.928403      -270.1656 
   6   2.0000      -9.924160      -270.0501 
   7   2.0000      -9.190095      -250.0752 
   8   2.0000      -7.014356      -190.8703 
   9   2.0000      -7.003633      -190.5785 
  10   2.0000      -7.002975      -190.5606 
  11   2.0000      -0.823528       -22.4093 
  12   2.0000      -0.768987       -20.9252 
  13   2.0000      -0.692123       -18.8336 
  14   2.0000      -0.669013       -18.2048 
  15   2.0000      -0.563183       -15.3250 
  16   2.0000      -0.546303       -14.8657 
  17   2.0000      -0.477678       -12.9983 
  18   2.0000      -0.423555       -11.5255 
  19   2.0000      -0.423172       -11.5151 
  20   2.0000      -0.391632       -10.6568 
  21   2.0000      -0.387902       -10.5553 
  22   2.0000      -0.360567        -9.8115 
  23   2.0000      -0.323345        -8.7987 
  24   2.0000      -0.320324        -8.7165 
  25   2.0000      -0.301330        -8.1996 
  26   2.0000      -0.274333        -7.4650 
  27   2.0000      -0.241556        -6.5731 
  28   2.0000      -0.222113        -6.0440 
  29   0.0000      -0.050337        -1.3697 
  30   0.0000      -0.048012        -1.3065 
  31   0.0000       0.003300         0.0898 
  32   0.0000       0.055492         1.5100 
  33   0.0000       0.075383         2.0513 
  34   0.0000       0.092631         2.5206 
  35   0.0000       0.094858         2.5812 
  36   0.0000       0.118215         3.2168 
  37   0.0000       0.120804         3.2872 
  38   0.0000       0.209942         5.7128 
  39   0.0000       0.232140         6.3169 
  40   0.0000       0.241669         6.5762 
  41   0.0000       0.248246         6.7551 
  42   0.0000       0.348421         9.4810 
  43   0.0000       0.363922         9.9028 
  44   0.0000       0.397420        10.8144 
  45   0.0000       0.411085        11.1862 
  46   0.0000       0.412614        11.2278 
  47   0.0000       0.447807        12.1854 
  48   0.0000       0.457002        12.4357 
  49   0.0000       0.459796        12.5117 
  50   0.0000       0.461703        12.5636 
  51   0.0000       0.463192        12.6041 
  52   0.0000       0.464190        12.6313 
  53   0.0000       0.466263        12.6877 
  54   0.0000       0.468709        12.7542 
  55   0.0000       0.515227        14.0200 
  56   0.0000       0.533400        14.5146 
  57   0.0000       0.541658        14.7393 
  58   0.0000       0.544371        14.8131 
  59   0.0000       0.586385        15.9563 
  60   0.0000       0.592870        16.1328 
  61   0.0000       0.611041        16.6273 
  62   0.0000       0.619361        16.8537 
  63   0.0000       0.635411        17.2904 
  64   0.0000       0.667361        18.1598 
  65   0.0000       0.669763        18.2252 
  66   0.0000       0.673788        18.3347 
  67   0.0000       0.713805        19.4236 
  68   0.0000       0.780258        21.2319 
  69   0.0000       0.815982        22.2040 
  70   0.0000       0.832556        22.6550 
  71   0.0000       0.836646        22.7663 
  72   0.0000       0.845507        23.0074 
  73   0.0000       0.853828        23.2338 
  74   0.0000       0.890477        24.2311 
  75   0.0000       0.934094        25.4180 
  76   0.0000       0.940726        25.5984 
  77   0.0000       0.955086        25.9892 
  78   0.0000       0.974975        26.5304 
  79   0.0000       0.981344        26.7037 
  80   0.0000       0.997303        27.1380 
  81   0.0000       1.009703        27.4754 
  82   0.0000       1.063569        28.9412 
  83   0.0000       1.159894        31.5623 
  84   0.0000       1.163995        31.6739 
  85   0.0000       1.201895        32.7052 
  86   0.0000       1.226923        33.3863 
  87   0.0000       1.358532        36.9675 
  88   0.0000       1.399329        38.0777 
  89   0.0000       1.400791        38.1175 
  90   0.0000       1.418170        38.5904 
  91   0.0000       1.455759        39.6132 
  92   0.0000       1.476569        40.1795 
  93   0.0000       1.522561        41.4310 
  94   0.0000       1.527736        41.5718 
  95   0.0000       1.562549        42.5191 
  96   0.0000       1.571234        42.7554 
  97   0.0000       1.575620        42.8748 
  98   0.0000       1.601364        43.5753 
  99   0.0000       1.623211        44.1698 
 100   0.0000       1.676627        45.6234 
 101   0.0000       1.679278        45.6955 
 102   0.0000       1.691035        46.0154 
 103   0.0000       1.708351        46.4866 
 104   0.0000       1.750343        47.6293 
 105   0.0000       1.763940        47.9992 
 106   0.0000       1.771865        48.2149 
 107   0.0000       1.773646        48.2634 
 108   0.0000       1.825986        49.6876 
 109   0.0000       1.845217        50.2109 
 110   0.0000       1.895536        51.5802 
 111   0.0000       1.914948        52.1084 
 112   0.0000       1.919550        52.2336 
 113   0.0000       2.027682        55.1760 
 114   0.0000       2.103593        57.2417 
 115   0.0000       2.135106        58.0992 
 116   0.0000       2.250917        61.2506 
 117   0.0000       2.299420        62.5704 
 118   0.0000       2.339731        63.6673 
 119   0.0000       2.341690        63.7206 
 120   0.0000       2.435097        66.2624 
 121   0.0000       2.537407        69.0464 
 122   0.0000       2.604652        70.8762 
 123   0.0000       2.659713        72.3745 
 124   0.0000       2.699659        73.4615 
 125   0.0000       2.809134        76.4404 
 126   0.0000       3.431274        93.3697 

                    ********************************
                    * MULLIKEN POPULATION ANALYSIS *
                    ********************************

-----------------------
MULLIKEN ATOMIC CHARGES
-----------------------
   0 C :    0.103412
   1 C :    0.024144
   2 C :    0.022742
   3 C :    0.020764
   4 C :    0.109571
   5 C :   -0.148054
   6 H :   -0.011599
   7 H :   -0.015067
   8 H :   -0.009393
   9 H :   -0.015833
  10 H :   -0.011886
  11 Cl:   -0.068800
Sum of atomic charges:   -0.0000000

--------------------------------
MULLIKEN REDUCED ORBITAL CHARGES
--------------------------------
  0 C s       :     3.112909  s :     3.112909
      pz      :     0.966507  p :     2.722963
      px      :     0.904908
      py      :     0.851548
      dz2     :     0.008534  d :     0.060716
      dxz     :     0.007897
      dyz     :     0.009592
      dx2y2   :     0.014118
      dxy     :     0.020574
  1 C s       :     3.120265  s :     3.120265
      pz      :     0.953774  p :     2.792035
      px      :     0.956209
      py      :     0.882051
      dz2     :     0.006321  d :     0.063556
      dxz     :     0.009460
      dyz     :     0.010339
      dx2y2   :     0.018735
      dxy     :     0.018701
  2 C s       :     3.128403  s :     3.128403
      pz      :     0.951578  p :     2.785832
      px      :     0.866335
      py      :     0.967919
      dz2     :     0.004965  d :     0.063024
      dxz     :     0.006968
      dyz     :     0.013009
      dx2y2   :     0.022073
      dxy     :     0.016008
  3 C s       :     3.121606  s :     3.121606
      pz      :     0.971008  p :     2.793881
      px      :     0.935727
      py      :     0.887147
      dz2     :     0.008882  d :     0.063749
      dxz     :     0.008922
      dyz     :     0.009074
      dx2y2   :     0.015854
      dxy     :     0.021016
  4 C s       :     3.114155  s :     3.114155
      pz      :     0.953461  p :     2.715772
      px      :     0.914539
      py      :     0.847772
      dz2     :     0.006073  d :     0.060502
      dxz     :     0.008827
      dyz     :     0.010478
      dx2y2   :     0.016130
      dxy     :     0.018995
  5 C s       :     3.227528  s :     3.227528
      pz      :     0.972011  p :     2.820049
      px      :     0.785663
      py      :     1.062376
      dz2     :     0.011827  d :     0.100476
      dxz     :     0.016736
      dyz     :     0.016939
      dx2y2   :     0.028949
      dxy     :     0.026025
  6 H s       :     0.983073  s :     0.983073
      pz      :     0.006267  p :     0.028526
      px      :     0.008731
      py      :     0.013528
  7 H s       :     0.986425  s :     0.986425
      pz      :     0.007814  p :     0.028641
      px      :     0.006749
      py      :     0.014078
  8 H s       :     0.981250  s :     0.981250
      pz      :     0.006156  p :     0.028143
      px      :     0.008520
      py      :     0.013467
  9 H s       :     0.987851  s :     0.987851
      pz      :     0.008705  p :     0.027982
      px      :     0.014584
      py      :     0.004693
 10 H s       :     0.983721  s :     0.983721
      pz      :     0.007649  p :     0.028165
      px      :     0.006558
      py      :     0.013958
 11 Cls       :     5.920516  s :     5.920516
      pz      :     3.769045  p :    11.106268
      px      :     3.387541
      py      :     3.949683
      dz2     :     0.006694  d :     0.042016
      dxz     :     0.015120
      dyz     :     0.001690
      dx2y2   :     0.012533
      dxy     :     0.005979


                     *******************************
                     * LOEWDIN POPULATION ANALYSIS *
                     *******************************

----------------------
LOEWDIN ATOMIC CHARGES
----------------------
   0 C :   -0.037301
   1 C :   -0.021494
   2 C :   -0.030255
   3 C :   -0.022218
   4 C :   -0.036120
   5 C :   -0.162397
   6 H :    0.032641
   7 H :    0.032341
   8 H :    0.033480
   9 H :    0.031093
  10 H :    0.033245
  11 Cl:    0.146985

-------------------------------
LOEWDIN REDUCED ORBITAL CHARGES
-------------------------------
  0 C s       :     2.820653  s :     2.820653
      pz      :     0.977304  p :     3.020739
      px      :     1.025524
      py      :     1.017910
      dz2     :     0.024406  d :     0.195909
      dxz     :     0.027522
      dyz     :     0.028601
      dx2y2   :     0.049152
      dxy     :     0.066228
  1 C s       :     2.818360  s :     2.818360
      pz      :     0.958078  p :     3.003808
      px      :     1.021644
      py      :     1.024086
      dz2     :     0.018671  d :     0.199326
      dxz     :     0.030504
      dyz     :     0.028961
      dx2y2   :     0.060587
      dxy     :     0.060603
  2 C s       :     2.817950  s :     2.817950
      pz      :     0.963760  p :     3.014181
      px      :     1.002608
      py      :     1.047813
      dz2     :     0.015074  d :     0.198124
      dxz     :     0.021330
      dyz     :     0.038080
      dx2y2   :     0.069356
      dxy     :     0.054285
  3 C s       :     2.818509  s :     2.818509
      pz      :     0.963159  p :     3.004331
      px      :     1.015643
      py      :     1.025529
      dz2     :     0.025124  d :     0.199378
      dxz     :     0.029124
      dyz     :     0.026569
      dx2y2   :     0.052993
      dxy     :     0.065568
  4 C s       :     2.820666  s :     2.820666
      pz      :     0.974283  p :     3.019638
      px      :     1.028200
      py      :     1.017155
      dz2     :     0.018677  d :     0.195816
      dxz     :     0.029296
      dyz     :     0.029308
      dx2y2   :     0.054841
      dxy     :     0.063694
  5 C s       :     2.860134  s :     2.860134
      pz      :     0.986136  p :     3.025875
      px      :     0.937255
      py      :     1.102485
      dz2     :     0.029417  d :     0.276387
      dxz     :     0.042128
      dyz     :     0.045242
      dx2y2   :     0.085198
      dxy     :     0.074403
  6 H s       :     0.884908  s :     0.884908
      pz      :     0.017985  p :     0.082451
      px      :     0.025251
      py      :     0.039215
  7 H s       :     0.885212  s :     0.885212
      pz      :     0.022047  p :     0.082446
      px      :     0.019931
      py      :     0.040469
  8 H s       :     0.885176  s :     0.885176
      pz      :     0.017717  p :     0.081344
      px      :     0.025039
      py      :     0.038588
  9 H s       :     0.887301  s :     0.887301
      pz      :     0.024526  p :     0.081606
      px      :     0.041472
      py      :     0.015608
 10 H s       :     0.885477  s :     0.885477
      pz      :     0.021530  p :     0.081278
      px      :     0.020017
      py      :     0.039731
 11 Cls       :     5.717453  s :     5.717453
      pz      :     3.759728  p :    11.085380
      px      :     3.411537
      py      :     3.914116
      dz2     :     0.007563  d :     0.050182
      dxz     :     0.018067
      dyz     :     0.001975
      dx2y2   :     0.015459
      dxy     :     0.007118


                      *****************************
                      * MAYER POPULATION ANALYSIS *
                      *****************************

  NA   - Mulliken gross atomic population
  ZA   - Total nuclear charge
  QA   - Mulliken gross atomic charge
  VA   - Mayer's total valence
  BVA  - Mayer's bonded valence
  FA   - Mayer's free valence

  ATOM       NA         ZA         QA         VA         BVA        FA
  0 C      5.8966     6.0000     0.1034     3.9528     3.9528    -0.0000
  1 C      5.9759     6.0000     0.0241     4.0170     4.0170    -0.0000
  2 C      5.9773     6.0000     0.0227     3.9967     3.9967     0.0000
  3 C      5.9792     6.0000     0.0208     4.0116     4.0116    -0.0000
  4 C      5.8904     6.0000     0.1096     3.9513     3.9513     0.0000
  5 C      6.1481     6.0000    -0.1481     4.0154     4.0154    -0.0000
  6 H      1.0116     1.0000    -0.0116     0.9813     0.9813    -0.0000
  7 H      1.0151     1.0000    -0.0151     0.9816     0.9816     0.0000
  8 H      1.0094     1.0000    -0.0094     0.9687     0.9687    -0.0000
  9 H      1.0158     1.0000    -0.0158     0.9691     0.9691     0.0000
 10 H      1.0119     1.0000    -0.0119     0.9689     0.9689     0.0000
 11 Cl    17.0688    17.0000    -0.0688     1.1623     1.1623    -0.0000

  Mayer bond orders larger than 0.1
B(  0-C ,  1-C ) :   1.4611 B(  0-C ,  5-C ) :   1.3929 B(  0-C ,  6-H ) :   0.9317 
B(  1-C ,  2-C ) :   1.4542 B(  1-C , 10-H ) :   0.9343 B(  2-C ,  3-C ) :   1.4504 
B(  2-C ,  9-H ) :   0.9386 B(  3-C ,  4-C ) :   1.4597 B(  3-C ,  8-H ) :   0.9355 
B(  4-C ,  5-C ) :   1.3939 B(  4-C ,  7-H ) :   0.9312 B(  5-C , 11-Cl) :   1.0475 


-------
TIMINGS
-------

Total SCF time: 0 days 0 hours 0 min 16 sec 

Total time                  ....      16.473 sec
Sum of individual times     ....      16.451 sec  ( 99.9%)

Fock matrix formation       ....      13.458 sec  ( 81.7%)
  Split-RI-J                ....       6.617 sec  ( 49.2% of F)
  XC integration            ....       6.825 sec  ( 50.7% of F)
    Basis function eval.    ....       4.515 sec  ( 66.2% of XC)
    Density eval.           ....       0.690 sec  ( 10.1% of XC)
    XC-Functional eval.     ....       0.362 sec  (  5.3% of XC)
    XC-Potential eval.      ....       1.167 sec  ( 17.1% of XC)
Diagonalization             ....       0.022 sec  (  0.1%)
Density matrix formation    ....       0.003 sec  (  0.0%)
Population analysis         ....       0.004 sec  (  0.0%)
Initial guess               ....       0.900 sec  (  5.5%)
Orbital Transformation      ....       0.000 sec  (  0.0%)
Orbital Orthonormalization  ....       0.000 sec  (  0.0%)
DIIS solution               ....       0.004 sec  (  0.0%)
SOSCF solution              ....       0.013 sec  (  0.1%)
Grid generation             ....       2.048 sec  ( 12.4%)

-------------------------   --------------------
FINAL SINGLE POINT ENERGY      -691.907948180028
-------------------------   --------------------


                            ***************************************
                            *     ORCA property calculations      *
                            ***************************************

                                    ---------------------
                                    Active property flags
                                    ---------------------
   (+) Dipole Moment
   (+) Chemical Shifts


------------------------------------------------------------------------------
                       ORCA ELECTRIC PROPERTIES CALCULATION
------------------------------------------------------------------------------

Dipole Moment Calculation                       ... on
Quadrupole Moment Calculation                   ... off
Polarizability Calculation                      ... off
GBWName                                         ... /home/jan/SoftwareDevelopment/karminus/output/bp86_ccpvdz/chlorobenzene/chlorobenzene.gbw
Electron density file                           ... /home/jan/SoftwareDevelopment/karminus/output/bp86_ccpvdz/chlorobenzene/chlorobenzene.scfp.tmp

-------------
DIPOLE MOMENT
-------------
                                X             Y             Z
Electronic contribution:     -8.09534       0.19202       4.19622
Nuclear contribution   :      8.62674      -0.20443      -4.46979
                        -----------------------------------------
Total Dipole Moment    :      0.53140      -0.01241      -0.27357
                        -----------------------------------------
Magnitude (a.u.)       :      0.59782
Magnitude (Debye)      :      1.51953

------------------------------------------------------------------------------
                                ORCA EPR/NMR CALCULATION
------------------------------------------------------------------------------

GBWName                      ... /home/jan/SoftwareDevelopment/karminus/output/bp86_ccpvdz/chlorobenzene/chlorobenzene.gbw
Electron density file        ... /home/jan/SoftwareDevelopment/karminus/output/bp86_ccpvdz/chlorobenzene/chlorobenzene.scfp.tmp
Spin density file            ... /home/jan/SoftwareDevelopment/karminus/output/bp86_ccpvdz/chlorobenzene/chlorobenzene.scfr.tmp
Treatment of gauge           ... GIAO (approximations 1/2el = 0,3)
Details of the CP(SCF) procedure:
       Solver   = POPLE   
       MaxIter  =    64   
       Tolerance=    1.000e-06
       Op-0     =   0- 28 =>  29-126
Multiplicity                 ... 1
g-tensor                     ... 0
NMR chemical shifts          ... 1
Number of nuclei for epr/nmr ... 12
   Nucleus:   0C 
       Hyperfine : Isotope=   13 I=   0.500 P= 134.188
       Quadrupole: Isotope=   13 I=   0.500 Q=   0.000
       Spin-Orbit: Zeff=   3.600
       rho(0)=N f(grad)=N a(iso)=N a(dip)=N a(orb)=N sigma(nmr)=Y
   Nucleus:   1C 
       Hyperfine : Isotope=   13 I=   0.500 P= 134.188
       Quadrupole: Isotope=   13 I=   0.500 Q=   0.000
       Spin-Orbit: Zeff=   3.600
       rho(0)=N f(grad)=N a(iso)=N a(dip)=N a(orb)=N sigma(nmr)=Y
   Nucleus:   2C 
       Hyperfine : Isotope=   13 I=   0.500 P= 134.188
       Quadrupole: Isotope=   13 I=   0.500 Q=   0.000
       Spin-Orbit: Zeff=   3.600
       rho(0)=N f(grad)=N a(iso)=N a(dip)=N a(orb)=N sigma(nmr)=Y
   Nucleus:   3C 
       Hyperfine : Isotope=   13 I=   0.500 P= 134.188
       Quadrupole: Isotope=   13 I=   0.500 Q=   0.000
       Spin-Orbit: Zeff=   3.600
       rho(0)=N f(grad)=N a(iso)=N a(dip)=N a(orb)=N sigma(nmr)=Y
   Nucleus:   4C 
       Hyperfine : Isotope=   13 I=   0.500 P= 134.188
       Quadrupole: Isotope=   13 I=   0.500 Q=   0.000
       Spin-Orbit: Zeff=   3.600
       rho(0)=N f(grad)=N a(iso)=N a(dip)=N a(orb)=N sigma(nmr)=Y
   Nucleus:   5C 
       Hyperfine : Isotope=   13 I=   0.500 P= 134.188
       Quadrupole: Isotope=   13 I=   0.500 Q=   0.000
       Spin-Orbit: Zeff=   3.600
       rho(0)=N f(grad)=N a(iso)=N a(dip)=N a(orb)=N sigma(nmr)=Y
   Nucleus:   6H 
       Hyperfine : Isotope=    1 I=   0.500 P= 533.552
       Quadrupole: Isotope=    2 I=   1.000 Q=   0.003
       Spin-Orbit: Zeff=   1.000
       rho(0)=N f(grad)=N a(iso)=N a(dip)=N a(orb)=N sigma(nmr)=Y
   Nucleus:   7H 
       Hyperfine : Isotope=    1 I=   0.500 P= 533.552
       Quadrupole: Isotope=    2 I=   1.000 Q=   0.003
       Spin-Orbit: Zeff=   1.000
       rho(0)=N f(grad)=N a(iso)=N a(dip)=N a(orb)=N sigma(nmr)=Y
   Nucleus:   8H 
       Hyperfine : Isotope=    1 I=   0.500 P= 533.552
       Quadrupole: Isotope=    2 I=   1.000 Q=   0.003
       Spin-Orbit: Zeff=   1.000
       rho(0)=N f(grad)=N a(iso)=N a(dip)=N a(orb)=N sigma(nmr)=Y
   Nucleus:   9H 
       Hyperfine : Isotope=    1 I=   0.500 P= 533.552
       Quadrupole: Isotope=    2 I=   1.000 Q=   0.003
       Spin-Orbit: Zeff=   1.000
       rho(0)=N f(grad)=N a(iso)=N a(dip)=N a(orb)=N sigma(nmr)=Y
   Nucleus:  10H 
       Hyperfine : Isotope=    1 I=   0.500 P= 533.552
       Quadrupole: Isotope=    2 I=   1.000 Q=   0.003
       Spin-Orbit: Zeff=   1.000
       rho(0)=N f(grad)=N a(iso)=N a(dip)=N a(orb)=N sigma(nmr)=Y
   Nucleus:  11Cl
       Hyperfine : Isotope=   35 I=   1.500 P=  52.336
       Quadrupole: Isotope=   35 I=   1.500 Q=  -0.082
       Spin-Orbit: Zeff=  14.238
       rho(0)=N f(grad)=N a(iso)=N a(dip)=N a(orb)=N sigma(nmr)=Y
Using LibInt in CPSCF-CP

Forming RHS of the CP-SCF equations         ... 
Calculating right hand sides for GIAO treatment (new)  ... 
  Entering RightHandSide GIAO. ScalHFX=    0.0000 NeedHFX=0
     -> 1-electron GIAO integrals will be done analytically
     -> RI used in SCF and no Fock exchange. RIJK enforced by the user
     Making grid for GIAO integrations   ... done
     Test of existence of the V matrix   = 1
     Test of existence of the VCD matrix = 1
     Test of existence of the VO matrix  = 0
     Warning: RI is turned on for GIAO but the V matrix or its Cholesky decomposition are not found - making it
     Calculating V           ... done
     Cholesky decomposition  ... done
     Storing V and VCD       ... done
     Cholesky decomposition-2... done
     Storing VO              ... done
  Getting the pre-screening matrix        ... done
  Extracting occupied and virtual blocks  ... 
  Operator  0  NO=  29 NV=  98 
  One-electron GIAO integrals             ...   done
  Transforming and RHS contribution       ...   done
  Calculating F[B](P)                     ...  (RI-JK)
---------------------
RI-GIAO-TRANSFORMATION (AUX index driven)
----------------------

Dimension of the orbital-basis         ... 127
Dimension of the aux-basis             ... 400
Number of (i,a) MOs                    ... 29,98
Number of ij,ia,ab pairs               ... 841,2842,9604
Transformation of internal MOs         ...    0-  28
Transformation of internal/external MOs...    0-  28 to   29- 126

Mapping shells                                 ... done
Making shell addresses                         ... done
Figuring out significant basis function pairs  ... done
  N(Pairs)         ... 8128
  N(Strong pairs)  ... 8008
  Mem-Available    ... 1024 MB
  (p,q) per batch  ... 41937
  N(Batches)       ... 1
Preparing matrix containers                    ... done
Preparing AO buffer                            ... done
Calculating AO integrals and transforming AUX  ... done
Finished RI-GIAO integral generation and aux-index transformation in  5.382 sec
Mapping the MO pairs                            ... done
Getting memory                                  ... done
Second Phase: sorting and transformation of MO indices
Memory available                       ... 1024 MB 
Max. # Aux fcns treated in a batch     ... 400    
Initializing the MO transformation process      ... done
Batch   0: Q=   0 ...  399
   Reading      ... done
   Transforming ... done
Finished transformation of the MO indices in  1.293 sec
Initializing the sorting process                ... done

IJ-Resorting
# of internal pairs                    ... 841
# batches for internal pairs           ... 1
   (0) Reading      ... done
   (0) Writing      ... done
   (1) Reading      ... done
   (1) Writing      ... done
   (2) Reading      ... done
   (2) Writing      ... done
   (3) Reading      ... done
   (3) Writing      ... done
(ij|v) resorting done in     0.027 sec

IA-Resorting
# of internal orbitals                 ... 29
# batches for internal orbitals        ... 1
   (0) Reading      ... done
   (0) Writing      ... done
   (1) Reading      ... done
   (1) Writing      ... done
   (2) Reading      ... done
   (2) Writing      ... done
   (3) Reading      ... done
   (3) Writing      ... done
(ia|v) resorting done in     0.046 sec

  Resorting completed in     0.076 sec
RI-GIAO-Integral transformation completed in     6.801 sec
Reading RI-integrals ... done
Doing RI-JK          ... done
 => dG/dB done
  RI-JK GIAO contributions                ...   done
  DFT XC-terms                            ... done
  Transforming to MO basis/RHS contribs.  ... done
  GIAO profiling information: 
    Total GIAO time               ...      13.0 sec
       Grid setup                 ...       0.4 sec (  2.9%)
       RI-V-matrix setup          ...       0.0 sec (  0.4%)
       GIAO 1-electron integrals  ...       0.0 sec (  0.3%)
       GIAO RI-JK                 ...       4.5 sec ( 35.0%)
       GIAO RI integral trafo     ...       6.8 sec ( 52.5%)
       GIAO XC-terms              ...       1.1 sec (  8.8%)
       Right hand side assembly   ...       0.0 sec (  0.0%)

  GIAO right hand side done


Forming final perturbed densities           ... done
Transforming perturbed density to AO basis  ...  done

Magnetic field perturbation calculated in 13.050 sec

---------------
CHEMICAL SHIFTS
---------------

Note: using conversion factor for au to ppm alpha^2/2 =   26.625677252 
Doing GIAO para- and diamagnetic shielding integrals analytically     ...done
Doing remaining GIAO terms numerically                                ...done
 --------------
 Nucleus   0C :
 --------------

Diamagnetic contribution to the shielding tensor (ppm) : 
           246.280          2.499       -31.326
             4.278        258.806        12.668
           -35.315         13.660       205.566

Paramagnetic contribution to the shielding tensor (ppm): 
          -187.682        -47.671        76.025
           -47.738       -252.169       -22.738
            80.435        -22.764       -66.809

Total shielding tensor (ppm): 
            58.598        -45.172        44.699
           -43.460          6.637       -10.069
            45.120         -9.104       138.757


 Diagonalized sT*s matrix:
 
 sDSO           259.099          266.941          184.612  iso=     236.884
 sPSO          -279.197         -206.647          -20.816  iso=    -168.887
        ---------------  ---------------  ---------------
 Total          -20.098           60.294          163.796  iso=      67.997

 --------------
 Nucleus   1C :
 --------------

Diamagnetic contribution to the shielding tensor (ppm) : 
           273.595         -3.344        24.747
            -2.916        263.841       -10.815
            17.716         -7.500       312.058

Paramagnetic contribution to the shielding tensor (ppm): 
          -206.062         20.651        34.199
            19.833       -267.230       -34.719
            40.970        -38.159      -175.777

Total shielding tensor (ppm): 
            67.533         17.307        58.946
            16.916         -3.389       -45.535
            58.686        -45.659       136.281


 Diagonalized sT*s matrix:
 
 sDSO           262.137          264.524          322.833  iso=     283.165
 sPSO          -292.344         -209.615         -147.111  iso=    -216.356
        ---------------  ---------------  ---------------
 Total          -30.207           54.909          175.723  iso=      66.808

 --------------
 Nucleus   2C :
 --------------

Diamagnetic contribution to the shielding tensor (ppm) : 
           287.144        -10.908        42.487
            -9.395        267.919       -16.843
            45.728        -20.684       345.666

Paramagnetic contribution to the shielding tensor (ppm): 
          -270.173          2.107        40.994
             0.481       -209.018        -4.174
            37.793         -0.128      -209.801

Total shielding tensor (ppm): 
            16.971         -8.801        83.481
            -8.914         58.901       -21.017
            83.522        -20.812       135.866


 Diagonalized sT*s matrix:
 
 sDSO           263.513          263.650          373.567  iso=     300.243
 sPSO          -289.631         -208.846         -190.515  iso=    -229.664
        ---------------  ---------------  ---------------
 Total          -26.118           54.805          183.052  iso=      70.579

 --------------
 Nucleus   3C :
 --------------

Diamagnetic contribution to the shielding tensor (ppm) : 
           272.869         -4.141        14.103
            -4.430        263.964        -5.215
            16.457         -6.916       291.613

Paramagnetic contribution to the shielding tensor (ppm): 
          -218.337        -44.439        38.180
           -43.796       -264.165        -6.279
            36.212         -4.379      -145.175

Total shielding tensor (ppm): 
            54.532        -48.580        52.283
           -48.226         -0.201       -11.494
            52.669        -11.295       146.438


 Diagonalized sT*s matrix:
 
 sDSO           262.343          264.545          301.558  iso=     276.149
 sPSO          -292.568         -209.367         -125.742  iso=    -209.225
        ---------------  ---------------  ---------------
 Total          -30.225           55.178          175.816  iso=      66.923

 --------------
 Nucleus   4C :
 --------------

Diamagnetic contribution to the shielding tensor (ppm) : 
           244.546         11.628       -47.223
            10.435        257.298        17.447
           -40.747         13.912       172.024

Paramagnetic contribution to the shielding tensor (ppm): 
          -173.864          5.408        98.387
             4.828       -253.762       -58.263
            91.355        -55.572       -42.728

Total shielding tensor (ppm): 
            70.682         17.036        51.164
            15.264          3.536       -40.817
            50.607        -41.660       129.296


 Diagonalized sT*s matrix:
 
 sDSO           258.884          266.884          148.101  iso=     224.623
 sPSO          -279.051         -206.983           15.680  iso=    -156.785
        ---------------  ---------------  ---------------
 Total          -20.168           59.901          163.781  iso=      67.838

 --------------
 Nucleus   5C :
 --------------

Diamagnetic contribution to the shielding tensor (ppm) : 
           237.930         14.729       -74.627
            13.155        249.681        26.600
           -74.308         29.514       131.697

Paramagnetic contribution to the shielding tensor (ppm): 
          -232.639        -18.460       136.959
           -16.893       -185.570       -37.961
           136.596        -40.844       -37.636

Total shielding tensor (ppm): 
             5.291         -3.731        62.331
            -3.738         64.111       -11.361
            62.288        -11.330        94.061


 Diagonalized sT*s matrix:
 
 sDSO           276.292          255.702           87.314  iso=     206.436
 sPSO          -303.157         -193.719           41.031  iso=    -151.948
        ---------------  ---------------  ---------------
 Total          -26.865           61.983          128.345  iso=      54.488

 --------------
 Nucleus   6H :
 --------------

Diamagnetic contribution to the shielding tensor (ppm) : 
            15.870         11.302       -29.101
            11.098         36.470        10.684
           -31.369         12.009       -26.270

Paramagnetic contribution to the shielding tensor (ppm): 
             9.260        -13.771        26.293
           -12.989        -11.174        -8.766
            28.666         -9.761        48.768

Total shielding tensor (ppm): 
            25.129         -2.469        -2.808
            -1.891         25.296         1.918
            -2.704          2.248        22.497


 Diagonalized sT*s matrix:
 
 sDSO           -44.893           40.806           30.157  iso=       8.690
 sPSO            65.542          -17.687           -1.002  iso=      15.618
        ---------------  ---------------  ---------------
 Total           20.649           23.119           29.155  iso=      24.308

 --------------
 Nucleus   7H :
 --------------

Diamagnetic contribution to the shielding tensor (ppm) : 
             9.805          6.227       -44.395
             5.414         35.645        21.032
           -40.880         21.212       -53.321

Paramagnetic contribution to the shielding tensor (ppm): 
            16.372         -3.074        42.217
            -2.835        -10.586       -21.464
            38.563        -21.965        75.021

Total shielding tensor (ppm): 
            26.176          3.153        -2.178
             2.579         25.059        -0.432
            -2.318         -0.753        21.701


 Diagonalized sT*s matrix:
 
 sDSO           -78.813           40.783           30.159  iso=      -2.624
 sPSO            99.482          -17.664           -1.011  iso=      26.935
        ---------------  ---------------  ---------------
 Total           20.668           23.119           29.148  iso=      24.312

 --------------
 Nucleus   8H :
 --------------

Diamagnetic contribution to the shielding tensor (ppm) : 
            44.186          2.174        20.101
             2.566         40.232        -9.508
            21.809        -10.963        68.482

Paramagnetic contribution to the shielding tensor (ppm): 
           -18.816         -3.157       -22.362
            -3.433        -15.678        10.612
           -24.015         12.110       -45.774

Total shielding tensor (ppm): 
            25.370         -0.983        -2.261
            -0.866         24.554         1.104
            -2.206          1.147        22.709


 Diagonalized sT*s matrix:
 
 sDSO            81.971           43.103           27.827  iso=      50.967
 sPSO           -60.627          -19.134           -0.508  iso=     -26.756
        ---------------  ---------------  ---------------
 Total           21.344           23.969           27.319  iso=      24.211

 --------------
 Nucleus   9H :
 --------------

Diamagnetic contribution to the shielding tensor (ppm) : 
            72.390        -14.545        55.729
           -13.119         33.334       -24.611
            55.813        -27.427       151.447

Paramagnetic contribution to the shielding tensor (ppm): 
           -48.671         15.057       -56.688
            13.621         -6.289        25.467
           -56.747         28.291      -129.136

Total shielding tensor (ppm): 
            23.718          0.511        -0.959
             0.502         27.046         0.856
            -0.934          0.864        22.312


 Diagonalized sT*s matrix:
 
 sDSO           185.950           43.573           27.649  iso=      85.724
 sPSO          -164.298          -19.380           -0.418  iso=     -61.365
        ---------------  ---------------  ---------------
 Total           21.652           24.193           27.231  iso=      24.359

 --------------
 Nucleus  10H :
 --------------

Diamagnetic contribution to the shielding tensor (ppm) : 
            47.682        -12.996        35.678
           -12.254         42.143       -10.518
            32.328        -10.596       103.168

Paramagnetic contribution to the shielding tensor (ppm): 
           -21.825         14.429       -37.686
            13.543        -17.705        10.478
           -34.298         10.531       -80.796

Total shielding tensor (ppm): 
            25.856          1.433        -2.009
             1.289         24.439        -0.039
            -1.970         -0.066        22.372


 Diagonalized sT*s matrix:
 
 sDSO           122.108           43.088           27.796  iso=      64.331
 sPSO          -100.734          -19.115           -0.477  iso=     -40.109
        ---------------  ---------------  ---------------
 Total           21.374           23.973           27.319  iso=      24.222

 --------------
 Nucleus  11Cl:
 --------------

Diamagnetic contribution to the shielding tensor (ppm) : 
          1131.660          9.394       -46.517
             8.268       1139.828        16.691
           -46.199         18.751      1065.505

Paramagnetic contribution to the shielding tensor (ppm): 
          -228.558        -19.983      -106.469
           -18.662       -561.400       -18.206
          -107.398        -20.783      -377.826

Total shielding tensor (ppm): 
           903.101        -10.589      -152.986
           -10.394        578.428        -1.515
          -153.597         -2.032       687.679


 Diagonalized sT*s matrix:
 
 sDSO          1143.649         1037.806         1155.537  iso=    1112.331
 sPSO          -566.719         -428.446         -172.618  iso=    -389.261
        ---------------  ---------------  ---------------
 Total          576.930          609.361          982.918  iso=     723.070



--------------------------
CHEMICAL SHIELDING SUMMARY (ppm)
--------------------------


  Nucleus  Element    Isotropic     Anisotropy
  -------  -------  ------------   ------------
      0       C           67.997        143.698 
      1       C           66.808        163.372 
      2       C           70.579        168.708 
      3       C           66.923        163.340 
      4       C           67.838        143.914 
      5       C           54.488        110.786 
      6       H           24.308          7.271 
      7       H           24.312          7.254 
      8       H           24.211          4.663 
      9       H           24.359          4.309 
     10       H           24.222          4.646 
     11       Cl         723.070        389.773 



Timings for individual modules:

Sum of individual times         ...       50.339 sec (=   0.839 min)
GTO integral calculation        ...        0.376 sec (=   0.006 min)   0.7 %
SCF iterations                  ...       16.489 sec (=   0.275 min)  32.8 %
SCF-level EPR/NMR calculation   ...       33.474 sec (=   0.558 min)  66.5 %
                             ****ORCA TERMINATED NORMALLY****
TOTAL RUN TIME: 0 days 0 hours 0 minutes 50 seconds 465 msec
