11
	Energy:       8.4948362
C         -5.85526        5.92755        0.12183
C         -4.64814        4.98911        0.10565
C         -6.97620        5.16638        0.12370
H         -5.65846        6.99279        0.13093
O         -8.35625        5.38604        0.13779
C         -6.53975        3.71947        0.12787
O         -5.11976        3.71501        0.06751
O         -3.47378        5.24514        0.11896
H         -8.86349        6.22759        0.15079
H         -6.88178        3.13007       -0.72597
H         -6.79891        3.18960        1.04660


