
                                 *****************
                                 * O   R   C   A *
                                 *****************

           --- An Ab Initio, DFT and Semiempirical electronic structure package ---

                  #######################################################
                  #                        -***-                        #
                  #  Department of molecular theory and spectroscopy    #
                  #              Directorship: Frank Neese              #
                  # Max Planck Institute for Chemical Energy Conversion #
                  #                  D-45470 Muelheim/Ruhr              #
                  #                       Germany                       #
                  #                                                     #
                  #                  All rights reserved                #
                  #                        -***-                        #
                  #######################################################


                         Program Version 4.0.0.2 - RELEASE -


 With contributions from (in alphabetic order):
   Daniel Aravena         : Magnetic Properties
   Michael Atanasov       : Ab Initio Ligand Field Theory
   Ute Becker             : Parallelization
   Martin Brehm           : Molecular dynamics
   Dmytro Bykov           : SCF Hessian
   Vijay G. Chilkuri      : MRCI spin determinant printing
   Dipayan Datta          : RHF DLPNO-CCSD density
   Achintya Kumar Dutta   : EOM-CC, STEOM-CC
   Dmitry Ganyushin       : Spin-Orbit,Spin-Spin,Magnetic field MRCI
   Yang Guo               : DLPNO-NEVPT2, CIM, IAO-localization
   Andreas Hansen         : Spin unrestricted coupled pair/coupled cluster methods
   Lee Huntington         : MR-EOM, pCC
   Robert Izsak           : Overlap fitted RIJCOSX, COSX-SCS-MP3, EOM
   Christian Kollmar      : KDIIS, OOCD, Brueckner-CCSD(T), CCSD density
   Simone Kossmann        : Meta GGA functionals, TD-DFT gradient, OOMP2, MP2 Hessian
   Martin Krupicka        : AUTO-CI
   Dagmar Lenk            : GEPOL surface
   Dimitrios Liakos       : Extrapolation schemes; parallel MDCI
   Dimitrios Manganas     : ROCIS; embedding schemes
   Dimitrios Pantazis     : SARC Basis sets
   Taras Petrenko         : DFT Hessian,TD-DFT gradient, ASA, ECA, R-Raman, ABS, FL, XAS/XES, NRVS
   Peter Pinski           : DLPNO-MP2
   Christoph Reimann      : Effective Core Potentials
   Marius Retegan         : Local ZFS, SOC
   Christoph Riplinger    : Optimizer, TS searches, QM/MM, DLPNO-CCSD(T), (RO)-DLPNO pert. Triples
   Tobias Risthaus        : Range-separated hybrids, TD-DFT gradient, RPA, STAB
   Michael Roemelt        : Restricted open shell CIS
   Masaaki Saitow         : Open-shell DLPNO
   Barbara Sandhoefer     : DKH picture change effects
   Kantharuban Sivalingam : CASSCF convergence, NEVPT2, FIC-MRCI
   Georgi Stoychev        : AutoAux
   Boris Wezisla          : Elementary symmetry handling
   Frank Wennmohs         : Technical directorship


 We gratefully acknowledge several colleagues who have allowed us to
 interface, adapt or use parts of their codes:
   Stefan Grimme, W. Hujo, H. Kruse,             : VdW corrections, initial TS optimization,
                  C. Bannwarth                     DFT functionals, gCP, sTDA/sTD-DF
   Ed Valeev                                     : LibInt (2-el integral package), F12 methods
   Garnet Chan, S. Sharma, J. Yang, R. Olivares  : DMRG
   Ulf Ekstrom                                   : XCFun DFT Library
   Mihaly Kallay                                 : mrcc  (arbitrary order and MRCC methods)
   Jiri Pittner, Ondrej Demel                    : Mk-CCSD
   Frank Weinhold                                : gennbo (NPA and NBO analysis)
   Christopher J. Cramer and Donald G. Truhlar   : smd solvation model


 Your calculation uses the libint2 library for the computation of 2-el integrals
 For citations please refer to: http://libint.valeyev.net

 This ORCA versions uses:
   CBLAS   interface :  Fast vector & matrix operations
   LAPACKE interface :  Fast linear algebra routines
   SCALAPACK package :  Parallel linear algebra routines




*****************************************
The coordinations will be read from file: guess.xyz
*****************************************



Information: The global flag for chemical shieldings has been found
             ==>> will calculate the chemical shifts for all atoms in the system

Your calculation utilizes the basis: aug-cc-pVDZ 
    H, B-Ne : Obtained from the ccRepo (grant-hill.group.shef.ac.uk/ccrepo) Feb. 2017
              R. A. Kendall, T. H. Dunning, Jr., R. J. Harrison, J. Chem. Phys. 96, 6796 (1992)
         He : Obtained from the ccRepo (grant-hill.group.shef.ac.uk/ccrepo) Feb. 2017
              D. E. Woon, T. H. Dunning, Jr., J. Chem. Phys. 100, 2975 (1994)
  Li-Be, Na : Obtained from the ccRepo (grant-hill.group.shef.ac.uk/ccrepo) Feb. 2017
              B. P. Prascher, D. E. Woon, K. A. Peterson, T. H. Dunning, Jr., A. K. Wilson, Theor. Chem. Acc. 128, 69 (2011)
         Mg : Obtained from the Peterson Research Group Website (tyr0.chem.wsu.edu/~kipeters) Feb. 2017
              B. P. Prascher, D. E. Woon, K. A. Peterson, T. H. Dunning, Jr., A. K. Wilson, Theor. Chem. Acc. 128, 69 (2011)
      Al-Ar : Obtained from the ccRepo (grant-hill.group.shef.ac.uk/ccrepo) Feb. 2017
              D. E. Woon, T. H. Dunning, Jr., J. Chem. Phys. 98, 1358 (1993)
      Sc-Zn : Obtained from the ccRepo (grant-hill.group.shef.ac.uk/ccrepo) Feb. 2017
              N. B. Balabanov, K. A. Peterson, J. Chem. Phys. 123, 064107 (2005)
              N. B. Balabanov, K. A. Peterson, J. Chem. Phys. 125, 074110 (2006)
      Ga-Kr : Obtained from the ccRepo (grant-hill.group.shef.ac.uk/ccrepo) Feb. 2017
              A. K. Wilson, D. E. Woon, K. A. Peterson, T. H. Dunning, Jr., J. Chem. Phys. 110, 7667 (1999)

================================================================================
                                        WARNINGS
                       Please study these warnings very carefully!
================================================================================

Warning: TCutStore was < 0. Adjusted to Thresh (uncritical)

INFO   : the flag for use of LIBINT has been found!

CheckInput: checking for shifts: .

Warning: GIAO NMR calculation needs an auxiliary basis but have none
           ===>>> Using AutoAux, but it is safer for you to specify one in the input
           ===>>> Done building the auxiliary basis
           ===>>> Writing GBW file done
================================================================================
                                       INPUT FILE
================================================================================
NAME = /home/jan/SoftwareDevelopment/ORCAunleashed/output/propionaldehyde/propionaldehyde.in
|  1> !aug-cc-pVDZ B3LYP NMR
|  2> 
|  3> *xyzfile 0 1 guess.xyz
|  4> 
|  5> 
|  6>                          ****END OF INPUT****
================================================================================

                       ****************************
                       * Single Point Calculation *
                       ****************************

---------------------------------
CARTESIAN COORDINATES (ANGSTROEM)
---------------------------------
  C     -3.811030   -1.056290    2.125820
  C     -3.977940    0.289510    2.808070
  H     -4.190390   -1.855890    2.770210
  H     -2.764060   -1.275650    1.892610
  H     -4.375620   -1.086340    1.188230
  C     -3.017000    1.317570    2.269120
  H     -3.772650    0.182250    3.877670
  H     -5.000880    0.657050    2.677920
  O     -3.131300    2.516860    2.496330
  H     -2.132490    0.934810    1.731070

----------------------------
CARTESIAN COORDINATES (A.U.)
----------------------------
  NO LB      ZA    FRAG     MASS         X           Y           Z
   0 C     6.0000    0    12.011   -7.201803   -1.996099    4.017218
   1 C     6.0000    0    12.011   -7.517217    0.547095    5.306483
   2 H     1.0000    0     1.008   -7.918689   -3.507124    5.234938
   3 H     1.0000    0     1.008   -5.223316   -2.410629    3.576515
   4 H     1.0000    0     1.008   -8.268723   -2.052885    2.245429
   5 C     6.0000    0    12.011   -5.701304    2.489846    4.288015
   6 H     1.0000    0     1.008   -7.129275    0.344403    7.327734
   7 H     1.0000    0     1.008   -9.450294    1.241645    5.060535
   8 O     8.0000    0    15.999   -5.917299    4.756176    4.717380
   9 H     1.0000    0     1.008   -4.029822    1.766535    3.271248

--------------------------------
INTERNAL COORDINATES (ANGSTROEM)
--------------------------------
 C      0   0   0     0.000000000000     0.00000000     0.00000000
 C      1   0   0     1.518058513563     0.00000000     0.00000000
 H      1   2   0     1.094766021440   110.17392130     0.00000000
 H      1   2   3     1.094829618982   112.24076791   239.50077491
 H      1   2   3     1.094869799885   110.64009690   119.07662769
 C      2   1   3     1.506910796862   111.96034776   156.91102285
 H      2   1   3     1.094391544055   109.37379009    38.15949605
 H      2   1   3     1.094728695933   110.30074104   278.37707230
 O      6   2   1     1.225963041123   122.79597394   166.54811657
 H      6   2   1     1.103793893895   116.66461084   340.74022781

---------------------------
INTERNAL COORDINATES (A.U.)
---------------------------
 C      0   0   0     0.000000000000     0.00000000     0.00000000
 C      1   0   0     2.868714845901     0.00000000     0.00000000
 H      1   2   0     2.068807961245   110.17392130     0.00000000
 H      1   2   3     2.068928143181   112.24076791   239.50077491
 H      1   2   3     2.069004074084   110.64009690   119.07662769
 C      2   1   3     2.847648714319   111.96034776   156.91102285
 H      2   1   3     2.068100301544   109.37379009    38.15949605
 H      2   1   3     2.068737426259   110.30074104   278.37707230
 O      6   2   1     2.316734398032   122.79597394   166.54811657
 H      6   2   1     2.085868167756   116.66461084   340.74022781

---------------------
BASIS SET INFORMATION
---------------------
There are 3 groups of distinct atoms

 Group   1 Type C   : 18s5p2d contracted to 4s3p2d pattern {8811/311/11}
 Group   2 Type H   : 5s2p contracted to 3s2p pattern {311/11}
 Group   3 Type O   : 18s5p2d contracted to 4s3p2d pattern {8811/311/11}

Atom   0C    basis set group =>   1
Atom   1C    basis set group =>   1
Atom   2H    basis set group =>   2
Atom   3H    basis set group =>   2
Atom   4H    basis set group =>   2
Atom   5C    basis set group =>   1
Atom   6H    basis set group =>   2
Atom   7H    basis set group =>   2
Atom   8O    basis set group =>   3
Atom   9H    basis set group =>   2

INFORMATION: There is an auxiliary basis set but the global RI flag is NOT set

-------------------------------
AUXILIARY BASIS SET INFORMATION
-------------------------------
There are 3 groups of distinct atoms

 Group   1 Type C   : 18s15p14d5f contracted to 18s15p14d5f pattern {111111111111111111/111111111111111/11111111111111/11111}
 Group   2 Type H   : 12s5p4d contracted to 12s5p4d pattern {111111111111/11111/1111}
 Group   3 Type O   : 18s15p14d5f contracted to 18s15p14d5f pattern {111111111111111111/111111111111111/11111111111111/11111}

Atom   0C    basis set group =>   1
Atom   1C    basis set group =>   1
Atom   2H    basis set group =>   2
Atom   3H    basis set group =>   2
Atom   4H    basis set group =>   2
Atom   5C    basis set group =>   1
Atom   6H    basis set group =>   2
Atom   7H    basis set group =>   2
Atom   8O    basis set group =>   3
Atom   9H    basis set group =>   2

Checking for AutoStart:
The File: /home/jan/SoftwareDevelopment/ORCAunleashed/output/propionaldehyde/propionaldehyde.gbw exists
Trying to determine its content:
     ... Fine, the file contains calculation information
     ... Fine, the calculation information was read
     ... Fine, the file contains a basis set
     ... Fine, the basis set was read
     ... Fine, the file contains a geometry
     ... Fine, the geometry was read
     ... The file does not contain orbitals - skipping AutoStart
------------------------------------------------------------------------------
                           ORCA GTO INTEGRAL CALCULATION
------------------------------------------------------------------------------

                         BASIS SET STATISTICS AND STARTUP INFO

 # of primitive gaussian shells          ...  142
 # of primitive gaussian functions       ...  238
 # of contracted shells                  ...   66
 # of contracted basis functions         ...  146
 Highest angular momentum                ...    2
 Maximum contraction depth               ...    8
 Integral package used                   ... LIBINT
 Integral threshhold            Thresh   ...  1.000e-10
 Primitive cut-off              TCut     ...  1.000e-11


------------------------------ INTEGRAL EVALUATION ----------------------------


 * One electron integrals 
 Pre-screening matrix                    ... done
 Shell pair data                         ... done (   0.002 sec)

-------------------------------------------------------------------------------
                                 ORCA SCF
-------------------------------------------------------------------------------

------------
SCF SETTINGS
------------
Hamiltonian:
 Density Functional     Method          .... DFT(GTOs)
 Exchange Functional    Exchange        .... B88
   X-Alpha parameter    XAlpha          ....  0.666667
   Becke's b parameter  XBeta           ....  0.004200
 Correlation Functional Correlation     .... LYP
 LDA part of GGA corr.  LDAOpt          .... VWN-5
 Gradients option       PostSCFGGA      .... off
 Hybrid DFT is turned on
   Fraction HF Exchange ScalHFX         ....  0.200000
   Scaling of DF-GGA-X  ScalDFX         ....  0.720000
   Scaling of DF-GGA-C  ScalDFC         ....  0.810000
   Scaling of DF-LDA-C  ScalLDAC        ....  1.000000
   Perturbative correction              ....  0.000000
   NL short-range parameter             ....  4.800000


General Settings:
 Integral files         IntName         .... /home/jan/SoftwareDevelopment/ORCAunleashed/output/propionaldehyde/propionaldehyde
 Hartree-Fock type      HFTyp           .... RHF
 Total Charge           Charge          ....    0
 Multiplicity           Mult            ....    1
 Number of Electrons    NEL             ....   32
 Basis Dimension        Dim             ....  146
 Nuclear Repulsion      ENuc            ....    116.1803133563 Eh

Convergence Acceleration:
 DIIS                   CNVDIIS         .... on
   Start iteration      DIISMaxIt       ....    12
   Startup error        DIISStart       ....  0.200000
   # of expansion vecs  DIISMaxEq       ....     5
   Bias factor          DIISBfac        ....   1.050
   Max. coefficient     DIISMaxC        ....  10.000
 Newton-Raphson         CNVNR           .... off
 SOSCF                  CNVSOSCF        .... on
   Start iteration      SOSCFMaxIt      ....   150
   Startup grad/error   SOSCFStart      ....  0.003300
 Level Shifting         CNVShift        .... on
   Level shift para.    LevelShift      ....    0.2500
   Turn off err/grad.   ShiftErr        ....    0.0010
 Zerner damping         CNVZerner       .... off
 Static damping         CNVDamp         .... on
   Fraction old density DampFac         ....    0.7000
   Max. Damping (<1)    DampMax         ....    0.9800
   Min. Damping (>=0)   DampMin         ....    0.0000
   Turn off err/grad.   DampErr         ....    0.1000
 Fernandez-Rico         CNVRico         .... off

SCF Procedure:
 Maximum # iterations   MaxIter         ....   125
 SCF integral mode      SCFMode         .... Direct
   Integral package                     .... LIBINT
 Reset frequeny         DirectResetFreq ....    20
 Integral Threshold     Thresh          ....  1.000e-10 Eh
 Primitive CutOff       TCut            ....  1.000e-11 Eh

Convergence Tolerance:
 Convergence Check Mode ConvCheckMode   .... Total+1el-Energy
 Convergence forced     ConvForced      .... 0
 Energy Change          TolE            ....  1.000e-06 Eh
 1-El. energy change                    ....  1.000e-03 Eh
 Orbital Gradient       TolG            ....  5.000e-05
 Orbital Rotation angle TolX            ....  5.000e-05
 DIIS Error             TolErr          ....  1.000e-06


Diagonalization of the overlap matrix:
Smallest eigenvalue                        ... 1.722e-03
Time for diagonalization                   ...    0.003 sec
Threshold for overlap eigenvalues          ... 1.000e-08
Number of eigenvalues below threshold      ... 0
Time for construction of square roots      ...    0.001 sec
Total time needed                          ...    0.003 sec

-------------------
DFT GRID GENERATION
-------------------

General Integration Accuracy     IntAcc      ...  4.340
Radial Grid Type                 RadialGrid  ... Gauss-Chebyshev
Angular Grid (max. acc.)         AngularGrid ... Lebedev-110
Angular grid pruning method      GridPruning ... 3 (G Style)
Weight generation scheme         WeightScheme... Becke
Basis function cutoff            BFCut       ...    1.0000e-10
Integration weight cutoff        WCut        ...    1.0000e-14
Grids for H and He will be reduced by one unit

# of grid points (after initial pruning)     ...  11448 (   0.0 sec)
# of grid points (after weights+screening)   ...  10925 (   0.0 sec)
nearest neighbour list constructed           ...    0.0 sec
Grid point re-assignment to atoms done       ...    0.0 sec
Grid point division into batches done        ...    0.0 sec
Reduced shell lists constructed in    0.2 sec

Total number of grid points                  ...    10925
Total number of batches                      ...      175
Average number of points per batch           ...       62
Average number of grid points per atom       ...     1092
Average number of shells per batch           ...    60.26 (91.31%)
Average number of basis functions per batch  ...   132.45 (90.72%)
Average number of large shells per batch     ...    53.62 (88.99%)
Average number of large basis fcns per batch ...   118.41 (89.40%)
Maximum spatial batch extension              ...  25.92, 22.36, 21.17 au
Average spatial batch extension              ...   4.45,  4.20,  4.38 au

Time for grid setup =    0.206 sec

------------------------------
INITIAL GUESS: MODEL POTENTIAL
------------------------------
Loading Hartree-Fock densities                     ... done
Calculating cut-offs                               ... done
Setting up the integral package                    ... done
Initializing the effective Hamiltonian             ... done
Starting the Coulomb interaction                   ... done (   0.1 sec)
Reading the grid                                   ... done
Mapping shells                                     ... done
Starting the XC term evaluation                    ... done (   0.3 sec)
  promolecular density results
     # of electrons  =     31.997040906
     EX              =    -25.364106141
     EC              =     -1.049498894
     EX+EC           =    -26.413605035
Transforming the Hamiltonian                       ... done (   0.0 sec)
Diagonalizing the Hamiltonian                      ... done (   0.0 sec)
Back transforming the eigenvectors                 ... done (   0.0 sec)
Now organizing SCF variables                       ... done
                      ------------------
                      INITIAL GUESS DONE (   0.7 sec)
                      ------------------
--------------
SCF ITERATIONS
--------------
ITER       Energy         Delta-E        Max-DP      RMS-DP      [F,P]     Damp
               ***  Starting incremental Fock matrix formation  ***
  0   -192.8882322902   0.000000000000 2.86158164  0.03127291  9.7940361 0.7000
  1   -192.9663246325  -0.078092342236 1.59427164  0.01616222  5.6734466 0.7000
  2   -192.9928405546  -0.026515922171 0.41783939  0.00409730  2.7067530 0.7000
  3   -193.0090212314  -0.016180676793 0.12526750  0.00161589  1.0271099 0.7000
                      *** Initiating the SOSCF procedure ***
                      *** Re-Reading the Fockian *** 
                      *** Removing any level shift *** 
ITER      Energy       Delta-E        Grad      Rot      Max-DP    RMS-DP
  4   -193.02078041  -0.0117591772  0.002413  0.002413  0.232842  0.003264
               *** Restarting incremental Fock matrix formation ***
  5   -193.04789448  -0.0271140729  0.005283  0.015126  0.810951  0.008137
  6   -193.04657956   0.0013149175  0.012719  0.011685  0.598390  0.005996
  7   -193.04827162  -0.0016920561  0.000407  0.000833  0.051327  0.000581
  8   -193.04827065   0.0000009732  0.000412  0.000340  0.025419  0.000283
  9   -193.04828248  -0.0000118356  0.000036  0.000040  0.000916  0.000018
                 **** Energy Check signals convergence ****
              ***Rediagonalizing the Fockian in SOSCF/NRSCF***

               *****************************************************
               *                     SUCCESS                       *
               *           SCF CONVERGED AFTER  10 CYCLES          *
               *****************************************************

Setting up the final grid:

General Integration Accuracy     IntAcc      ...  4.670
Radial Grid Type                 RadialGrid  ... Gauss-Chebyshev
Angular Grid (max. acc.)         AngularGrid ... Lebedev-302
Angular grid pruning method      GridPruning ... 3 (G Style)
Weight generation scheme         WeightScheme... Becke
Basis function cutoff            BFCut       ...    1.0000e-10
Integration weight cutoff        WCut        ...    1.0000e-14
Grids for H and He will be reduced by one unit

# of grid points (after initial pruning)     ...  45212 (   0.0 sec)
# of grid points (after weights+screening)   ...  42609 (   0.0 sec)
nearest neighbour list constructed           ...    0.0 sec
Grid point re-assignment to atoms done       ...    0.0 sec
Grid point division into batches done        ...    0.1 sec
Reduced shell lists constructed in    0.8 sec

Total number of grid points                  ...    42609
Total number of batches                      ...      669
Average number of points per batch           ...       63
Average number of grid points per atom       ...     4261
Average number of shells per batch           ...    57.71 (87.44%)
Average number of basis functions per batch  ...   126.51 (86.65%)
Average number of large shells per batch     ...    50.03 (86.68%)
Average number of large basis fcns per batch ...   110.01 (86.96%)
Maximum spatial batch extension              ...  20.42, 20.07, 18.86 au
Average spatial batch extension              ...   2.88,  2.81,  2.83 au

Final grid set up in    0.9 sec
Final integration                            ... done (   1.1 sec)
Change in XC energy                          ...    -0.000037632
Integrated number of electrons               ...    32.000019507
Previous integrated no of electrons          ...    32.000072244

----------------
TOTAL SCF ENERGY
----------------

Total Energy       :         -193.04832015 Eh           -5253.11185 eV

Components:
Nuclear Repulsion  :          116.18031336 Eh            3161.42705 eV
Electronic Energy  :         -309.22863350 Eh           -8414.53890 eV
One Electron Energy:         -490.62338064 Eh          -13350.54092 eV
Two Electron Energy:          181.39474714 Eh            4936.00201 eV

Virial components:
Potential Energy   :         -384.91819357 Eh          -10474.15654 eV
Kinetic Energy     :          191.86987342 Eh            5221.04469 eV
Virial Ratio       :            2.00614191


DFT components:
N(Alpha)           :       16.000009753343 electrons
N(Beta)            :       16.000009753343 electrons
N(Total)           :       32.000019506687 electrons
E(X)               :      -20.540601583674 Eh       
E(C)               :       -1.245899967957 Eh       
E(XC)              :      -21.786501551630 Eh       

---------------
SCF CONVERGENCE
---------------

  Last Energy change         ...   -3.3641e-08  Tolerance :   1.0000e-06
  Last MAX-Density change    ...    9.0020e-04  Tolerance :   1.0000e-05
  Last RMS-Density change    ...    1.2801e-05  Tolerance :   1.0000e-06
  Last Orbital Gradient      ...    2.4404e-05  Tolerance :   5.0000e-05
  Last Orbital Rotation      ...    1.8470e-05  Tolerance :   5.0000e-05

             **** THE GBW FILE WAS UPDATED (/home/jan/SoftwareDevelopment/ORCAunleashed/output/propionaldehyde/propionaldehyde.gbw) ****
             **** DENSITY FILE WAS UPDATED (/home/jan/SoftwareDevelopment/ORCAunleashed/output/propionaldehyde/propionaldehyde.scfp.tmp) ****
             **** ENERGY FILE WAS UPDATED (/home/jan/SoftwareDevelopment/ORCAunleashed/output/propionaldehyde/propionaldehyde.en.tmp) ****
----------------
ORBITAL ENERGIES
----------------

  NO   OCC          E(Eh)            E(eV) 
   0   2.0000     -19.151954      -521.1512 
   1   2.0000     -10.280307      -279.7414 
   2   2.0000     -10.201108      -277.5863 
   3   2.0000     -10.190692      -277.3028 
   4   2.0000      -1.047649       -28.5080 
   5   2.0000      -0.799488       -21.7552 
   6   2.0000      -0.663517       -18.0552 
   7   2.0000      -0.588451       -16.0126 
   8   2.0000      -0.480235       -13.0679 
   9   2.0000      -0.462766       -12.5925 
  10   2.0000      -0.456681       -12.4269 
  11   2.0000      -0.397776       -10.8240 
  12   2.0000      -0.388663       -10.5761 
  13   2.0000      -0.379099       -10.3158 
  14   2.0000      -0.350985        -9.5508 
  15   2.0000      -0.262026        -7.1301 
  16   0.0000      -0.048520        -1.3203 
  17   0.0000      -0.011019        -0.2998 
  18   0.0000       0.006447         0.1754 
  19   0.0000       0.012834         0.3492 
  20   0.0000       0.017122         0.4659 
  21   0.0000       0.042099         1.1456 
  22   0.0000       0.047557         1.2941 
  23   0.0000       0.058370         1.5883 
  24   0.0000       0.067450         1.8354 
  25   0.0000       0.076728         2.0879 
  26   0.0000       0.096800         2.6341 
  27   0.0000       0.101951         2.7742 
  28   0.0000       0.104598         2.8463 
  29   0.0000       0.106635         2.9017 
  30   0.0000       0.111973         3.0469 
  31   0.0000       0.120554         3.2804 
  32   0.0000       0.126953         3.4546 
  33   0.0000       0.133101         3.6219 
  34   0.0000       0.152921         4.1612 
  35   0.0000       0.163430         4.4471 
  36   0.0000       0.177789         4.8379 
  37   0.0000       0.184260         5.0140 
  38   0.0000       0.206326         5.6144 
  39   0.0000       0.214406         5.8343 
  40   0.0000       0.229818         6.2537 
  41   0.0000       0.233361         6.3501 
  42   0.0000       0.254213         6.9175 
  43   0.0000       0.261031         7.1030 
  44   0.0000       0.271087         7.3766 
  45   0.0000       0.279459         7.6045 
  46   0.0000       0.290517         7.9054 
  47   0.0000       0.323875         8.8131 
  48   0.0000       0.330270         8.9871 
  49   0.0000       0.339404         9.2357 
  50   0.0000       0.346952         9.4410 
  51   0.0000       0.358620         9.7585 
  52   0.0000       0.367113         9.9897 
  53   0.0000       0.377805        10.2806 
  54   0.0000       0.393806        10.7160 
  55   0.0000       0.398790        10.8516 
  56   0.0000       0.425422        11.5763 
  57   0.0000       0.439350        11.9553 
  58   0.0000       0.444693        12.1007 
  59   0.0000       0.450554        12.2602 
  60   0.0000       0.461283        12.5521 
  61   0.0000       0.466513        12.6945 
  62   0.0000       0.485335        13.2066 
  63   0.0000       0.496395        13.5076 
  64   0.0000       0.516155        14.0453 
  65   0.0000       0.524020        14.2593 
  66   0.0000       0.538949        14.6655 
  67   0.0000       0.556482        15.1427 
  68   0.0000       0.558312        15.1924 
  69   0.0000       0.580054        15.7841 
  70   0.0000       0.589171        16.0322 
  71   0.0000       0.613621        16.6975 
  72   0.0000       0.628565        17.1041 
  73   0.0000       0.634715        17.2715 
  74   0.0000       0.657582        17.8937 
  75   0.0000       0.678522        18.4635 
  76   0.0000       0.694149        18.8888 
  77   0.0000       0.708428        19.2773 
  78   0.0000       0.737700        20.0738 
  79   0.0000       0.775946        21.1146 
  80   0.0000       0.788845        21.4656 
  81   0.0000       0.804219        21.8839 
  82   0.0000       0.848103        23.0781 
  83   0.0000       0.872117        23.7315 
  84   0.0000       0.884955        24.0809 
  85   0.0000       0.902699        24.5637 
  86   0.0000       0.941905        25.6305 
  87   0.0000       0.977998        26.6127 
  88   0.0000       1.000609        27.2279 
  89   0.0000       1.034901        28.1611 
  90   0.0000       1.044091        28.4112 
  91   0.0000       1.062690        28.9173 
  92   0.0000       1.098014        29.8785 
  93   0.0000       1.137467        30.9520 
  94   0.0000       1.169021        31.8107 
  95   0.0000       1.202022        32.7087 
  96   0.0000       1.210673        32.9441 
  97   0.0000       1.269815        34.5534 
  98   0.0000       1.323478        36.0137 
  99   0.0000       1.383441        37.6453 
 100   0.0000       1.397648        38.0319 
 101   0.0000       1.458670        39.6924 
 102   0.0000       1.492098        40.6021 
 103   0.0000       1.504848        40.9490 
 104   0.0000       1.535403        41.7804 
 105   0.0000       1.552492        42.2455 
 106   0.0000       1.615442        43.9584 
 107   0.0000       1.625712        44.2379 
 108   0.0000       1.659608        45.1602 
 109   0.0000       1.678882        45.6847 
 110   0.0000       1.700617        46.2761 
 111   0.0000       1.710603        46.5479 
 112   0.0000       1.812964        49.3332 
 113   0.0000       1.826951        49.7139 
 114   0.0000       1.839221        50.0477 
 115   0.0000       1.867961        50.8298 
 116   0.0000       1.881514        51.1986 
 117   0.0000       1.906525        51.8792 
 118   0.0000       1.938243        52.7423 
 119   0.0000       1.962817        53.4110 
 120   0.0000       1.984855        54.0106 
 121   0.0000       2.046753        55.6950 
 122   0.0000       2.065180        56.1964 
 123   0.0000       2.081194        56.6322 
 124   0.0000       2.093520        56.9676 
 125   0.0000       2.209639        60.1273 
 126   0.0000       2.226812        60.5946 
 127   0.0000       2.277677        61.9787 
 128   0.0000       2.292615        62.3852 
 129   0.0000       2.339729        63.6673 
 130   0.0000       2.426468        66.0275 
 131   0.0000       2.479813        67.4791 
 132   0.0000       2.497853        67.9700 
 133   0.0000       2.535020        68.9814 
 134   0.0000       2.580717        70.2249 
 135   0.0000       2.609714        71.0139 
 136   0.0000       2.718972        73.9870 
 137   0.0000       2.737712        74.4969 
 138   0.0000       2.795080        76.0580 
 139   0.0000       2.854722        77.6809 
 140   0.0000       3.046313        82.8944 
 141   0.0000       3.352644        91.2301 
 142   0.0000       3.380566        91.9899 
 143   0.0000       3.391754        92.2943 
 144   0.0000       3.532118        96.1138 
 145   0.0000       3.679461       100.1232 

                    ********************************
                    * MULLIKEN POPULATION ANALYSIS *
                    ********************************

-----------------------
MULLIKEN ATOMIC CHARGES
-----------------------
   0 C :    0.938391
   1 C :    0.684888
   2 H :   -0.306263
   3 H :   -0.289002
   4 H :   -0.271795
   5 C :    0.709879
   6 H :   -0.273215
   7 H :   -0.253976
   8 O :   -0.531940
   9 H :   -0.406967
Sum of atomic charges:   -0.0000000

--------------------------------
MULLIKEN REDUCED ORBITAL CHARGES
--------------------------------
  0 C s       :    70.830854  s :    70.830854
      pz      :     2.468872  p :     7.392249
      px      :     2.460462
      py      :     2.462915
      dz2     :     0.003273  d :    -0.049938
      dxz     :    -0.044840
      dyz     :    -0.004564
      dx2y2   :    -0.025412
      dxy     :     0.021606
  1 C s       :    70.432088  s :    70.432088
      pz      :     2.518686  p :     7.437884
      px      :     2.474268
      py      :     2.444930
      dz2     :    -0.010503  d :     0.007929
      dxz     :     0.003743
      dyz     :     0.027131
      dx2y2   :     0.013976
      dxy     :    -0.026418
  2 H s       :     0.488004  s :     0.488004
      pz      :    -0.009364  p :    -0.047551
      px      :    -0.005228
      py      :    -0.032960
  3 H s       :     0.493659  s :     0.493659
      pz      :    -0.019956  p :    -0.040666
      px      :    -0.024451
      py      :     0.003741
  4 H s       :     0.491951  s :     0.491951
      pz      :    -0.030033  p :    -0.042626
      px      :    -0.015287
      py      :     0.002694
  5 C s       :    70.634937  s :    70.634937
      pz      :     2.021892  p :     7.049722
      px      :     2.330837
      py      :     2.696994
      dz2     :     0.012214  d :     0.129798
      dxz     :     0.001961
      dyz     :     0.052128
      dx2y2   :     0.011876
      dxy     :     0.051619
  6 H s       :     0.581136  s :     0.581136
      pz      :    -0.011912  p :    -0.049731
      px      :    -0.018623
      py      :    -0.019195
  7 H s       :     0.479884  s :     0.479884
      pz      :    -0.028714  p :    -0.055443
      px      :    -0.010423
      py      :    -0.016305
  8 O s       :   175.221261  s :   175.221261
      pz      :    19.438534  p :    63.177202
      px      :    23.944686
      py      :    19.793982
      dz2     :     0.008877  d :     0.080071
      dxz     :     0.001243
      dyz     :     0.026328
      dx2y2   :     0.021272
      dxy     :     0.022351
  9 H s       :     0.629931  s :     0.629931
      pz      :     0.000313  p :    -0.033963
      px      :    -0.009979
      py      :    -0.024297


                     *******************************
                     * LOEWDIN POPULATION ANALYSIS *
                     *******************************

----------------------
LOEWDIN ATOMIC CHARGES
----------------------
   0 C :   -0.536287
   1 C :   -0.912571
   2 H :    0.250151
   3 H :    0.249336
   4 H :    0.263077
   5 C :   -0.636137
   6 H :    0.321269
   7 H :    0.317824
   8 O :    0.430823
   9 H :    0.252514

-------------------------------
LOEWDIN REDUCED ORBITAL CHARGES
-------------------------------
  0 C s       :     2.342938  s :     2.342938
      pz      :     1.091300  p :     3.287344
      px      :     1.071065
      py      :     1.124979
      dz2     :     0.162994  d :     0.906005
      dxz     :     0.144688
      dyz     :     0.222132
      dx2y2   :     0.204072
      dxy     :     0.172119
  1 C s       :     2.281403  s :     2.281403
      pz      :     1.058025  p :     3.220290
      px      :     1.053578
      py      :     1.108687
      dz2     :     0.313211  d :     1.410878
      dxz     :     0.142449
      dyz     :     0.259705
      dx2y2   :     0.326348
      dxy     :     0.369166
  2 H s       :     0.433125  s :     0.433125
      pz      :     0.115405  p :     0.316724
      px      :     0.087590
      py      :     0.113730
  3 H s       :     0.427004  s :     0.427004
      pz      :     0.072516  p :     0.323659
      px      :     0.184522
      py      :     0.066621
  4 H s       :     0.418832  s :     0.418832
      pz      :     0.155836  p :     0.318091
      px      :     0.103240
      py      :     0.059015
  5 C s       :     2.267631  s :     2.267631
      pz      :     0.687679  p :     2.632106
      px      :     0.934927
      py      :     1.009499
      dz2     :     0.163099  d :     1.736400
      dxz     :     0.162565
      dyz     :     0.358625
      dx2y2   :     0.525967
      dxy     :     0.526143
  6 H s       :     0.391762  s :     0.391762
      pz      :     0.164681  p :     0.286969
      px      :     0.070043
      py      :     0.052244
  7 H s       :     0.394039  s :     0.394039
      pz      :     0.068650  p :     0.288137
      px      :     0.154732
      py      :     0.064755
  8 O s       :     2.953571  s :     2.953571
      pz      :     1.291739  p :     4.387932
      px      :     1.481304
      py      :     1.614888
      dz2     :     0.030721  d :     0.227673
      dxz     :     0.006006
      dyz     :     0.050294
      dx2y2   :     0.092379
      dxy     :     0.048272
  9 H s       :     0.431514  s :     0.431514
      pz      :     0.078786  p :     0.315972
      px      :     0.148152
      py      :     0.089035


                      *****************************
                      * MAYER POPULATION ANALYSIS *
                      *****************************

  NA   - Mulliken gross atomic population
  ZA   - Total nuclear charge
  QA   - Mulliken gross atomic charge
  VA   - Mayer's total valence
  BVA  - Mayer's bonded valence
  FA   - Mayer's free valence

  ATOM       NA         ZA         QA         VA         BVA        FA
  0 C      5.0616     6.0000     0.9384     3.7968     3.7968    -0.0000
  1 C      5.3151     6.0000     0.6849     3.9307     3.9307    -0.0000
  2 H      1.3063     1.0000    -0.3063     0.6585     0.6585    -0.0000
  3 H      1.2890     1.0000    -0.2890     0.6877     0.6877     0.0000
  4 H      1.2718     1.0000    -0.2718     0.7051     0.7051     0.0000
  5 C      5.2901     6.0000     0.7099     3.6077     3.6077    -0.0000
  6 H      1.2732     1.0000    -0.2732     0.6967     0.6967    -0.0000
  7 H      1.2540     1.0000    -0.2540     0.6682     0.6682     0.0000
  8 O      8.5319     8.0000    -0.5319     1.7421     1.7421    -0.0000
  9 H      1.4070     1.0000    -0.4070     0.7161     0.7161     0.0000

  Mayer bond orders larger than 0.1
B(  0-C ,  1-C ) :   1.2756 B(  0-C ,  2-H ) :   0.7741 B(  0-C ,  3-H ) :   0.9092 
B(  0-C ,  4-H ) :   0.8725 B(  1-C ,  2-H ) :   0.1174 B(  1-C ,  5-C ) :   1.0235 
B(  1-C ,  6-H ) :   0.7513 B(  1-C ,  7-H ) :   0.7252 B(  5-C ,  6-H ) :   0.1150 
B(  5-C ,  7-H ) :   0.1106 B(  5-C ,  8-O ) :   1.6841 B(  5-C ,  9-H ) :   0.7061 
B(  6-H ,  7-H ) :  -0.1599 

-------
TIMINGS
-------

Total SCF time: 0 days 0 hours 0 min 49 sec 

Total time                  ....      49.883 sec
Sum of individual times     ....      49.863 sec  (100.0%)

Fock matrix formation       ....      48.269 sec  ( 96.8%)
  XC integration            ....       4.214 sec  (  8.7% of F)
    Basis function eval.    ....       2.246 sec  ( 53.3% of XC)
    Density eval.           ....       0.457 sec  ( 10.8% of XC)
    XC-Functional eval.     ....       0.126 sec  (  3.0% of XC)
    XC-Potential eval.      ....       1.344 sec  ( 31.9% of XC)
Diagonalization             ....       0.015 sec  (  0.0%)
Density matrix formation    ....       0.002 sec  (  0.0%)
Population analysis         ....       0.005 sec  (  0.0%)
Initial guess               ....       0.502 sec  (  1.0%)
Orbital Transformation      ....       0.000 sec  (  0.0%)
Orbital Orthonormalization  ....       0.000 sec  (  0.0%)
DIIS solution               ....       0.003 sec  (  0.0%)
SOSCF solution              ....       0.010 sec  (  0.0%)
Grid generation             ....       1.058 sec  (  2.1%)

-------------------------   --------------------
FINAL SINGLE POINT ENERGY      -193.048320148303
-------------------------   --------------------


                            ***************************************
                            *     ORCA property calculations      *
                            ***************************************

                                    ---------------------
                                    Active property flags
                                    ---------------------
   (+) Dipole Moment
   (+) Chemical Shifts


------------------------------------------------------------------------------
                       ORCA ELECTRIC PROPERTIES CALCULATION
------------------------------------------------------------------------------

Dipole Moment Calculation                       ... on
Quadrupole Moment Calculation                   ... off
Polarizability Calculation                      ... off
GBWName                                         ... /home/jan/SoftwareDevelopment/ORCAunleashed/output/propionaldehyde/propionaldehyde.gbw
Electron density file                           ... /home/jan/SoftwareDevelopment/ORCAunleashed/output/propionaldehyde/propionaldehyde.scfp.tmp

-------------
DIPOLE MOMENT
-------------
                                X             Y             Z
Electronic contribution:      1.16091       5.39028       0.30878
Nuclear contribution   :     -1.24924      -6.57187      -0.37223
                        -----------------------------------------
Total Dipole Moment    :     -0.08833      -1.18159      -0.06345
                        -----------------------------------------
Magnitude (a.u.)       :      1.18658
Magnitude (Debye)      :      3.01605

------------------------------------------------------------------------------
                                ORCA EPR/NMR CALCULATION
------------------------------------------------------------------------------

GBWName                      ... /home/jan/SoftwareDevelopment/ORCAunleashed/output/propionaldehyde/propionaldehyde.gbw
Electron density file        ... /home/jan/SoftwareDevelopment/ORCAunleashed/output/propionaldehyde/propionaldehyde.scfp.tmp
Spin density file            ... /home/jan/SoftwareDevelopment/ORCAunleashed/output/propionaldehyde/propionaldehyde.scfr.tmp
Treatment of gauge           ... GIAO (approximations 1/2el = 0,3)
Details of the CP(SCF) procedure:
       Solver   = POPLE   
       MaxIter  =    64   
       Tolerance=    1.000e-06
       Op-0     =   0- 15 =>  16-145
Multiplicity                 ... 1
g-tensor                     ... 0
NMR chemical shifts          ... 1
Number of nuclei for epr/nmr ... 10
   Nucleus:   0C 
       Hyperfine : Isotope=   13 I=   0.500 P= 134.188
       Quadrupole: Isotope=   13 I=   0.500 Q=   0.000
       Spin-Orbit: Zeff=   3.600
       rho(0)=N f(grad)=N a(iso)=N a(dip)=N a(orb)=N sigma(nmr)=Y
   Nucleus:   1C 
       Hyperfine : Isotope=   13 I=   0.500 P= 134.188
       Quadrupole: Isotope=   13 I=   0.500 Q=   0.000
       Spin-Orbit: Zeff=   3.600
       rho(0)=N f(grad)=N a(iso)=N a(dip)=N a(orb)=N sigma(nmr)=Y
   Nucleus:   2H 
       Hyperfine : Isotope=    1 I=   0.500 P= 533.552
       Quadrupole: Isotope=    2 I=   1.000 Q=   0.003
       Spin-Orbit: Zeff=   1.000
       rho(0)=N f(grad)=N a(iso)=N a(dip)=N a(orb)=N sigma(nmr)=Y
   Nucleus:   3H 
       Hyperfine : Isotope=    1 I=   0.500 P= 533.552
       Quadrupole: Isotope=    2 I=   1.000 Q=   0.003
       Spin-Orbit: Zeff=   1.000
       rho(0)=N f(grad)=N a(iso)=N a(dip)=N a(orb)=N sigma(nmr)=Y
   Nucleus:   4H 
       Hyperfine : Isotope=    1 I=   0.500 P= 533.552
       Quadrupole: Isotope=    2 I=   1.000 Q=   0.003
       Spin-Orbit: Zeff=   1.000
       rho(0)=N f(grad)=N a(iso)=N a(dip)=N a(orb)=N sigma(nmr)=Y
   Nucleus:   5C 
       Hyperfine : Isotope=   13 I=   0.500 P= 134.188
       Quadrupole: Isotope=   13 I=   0.500 Q=   0.000
       Spin-Orbit: Zeff=   3.600
       rho(0)=N f(grad)=N a(iso)=N a(dip)=N a(orb)=N sigma(nmr)=Y
   Nucleus:   6H 
       Hyperfine : Isotope=    1 I=   0.500 P= 533.552
       Quadrupole: Isotope=    2 I=   1.000 Q=   0.003
       Spin-Orbit: Zeff=   1.000
       rho(0)=N f(grad)=N a(iso)=N a(dip)=N a(orb)=N sigma(nmr)=Y
   Nucleus:   7H 
       Hyperfine : Isotope=    1 I=   0.500 P= 533.552
       Quadrupole: Isotope=    2 I=   1.000 Q=   0.003
       Spin-Orbit: Zeff=   1.000
       rho(0)=N f(grad)=N a(iso)=N a(dip)=N a(orb)=N sigma(nmr)=Y
   Nucleus:   8O 
       Hyperfine : Isotope=   17 I=   2.500 P= -72.357
       Quadrupole: Isotope=   17 I=   2.500 Q=  -0.026
       Spin-Orbit: Zeff=   5.600
       rho(0)=N f(grad)=N a(iso)=N a(dip)=N a(orb)=N sigma(nmr)=Y
   Nucleus:   9H 
       Hyperfine : Isotope=    1 I=   0.500 P= 533.552
       Quadrupole: Isotope=    2 I=   1.000 Q=   0.003
       Spin-Orbit: Zeff=   1.000
       rho(0)=N f(grad)=N a(iso)=N a(dip)=N a(orb)=N sigma(nmr)=Y
Using LibInt in CPSCF-CP

Forming RHS of the CP-SCF equations         ... 
Calculating right hand sides for GIAO treatment (new)  ... 
  Entering RightHandSide GIAO. ScalHFX=    0.2000 NeedHFX=1
     -> 1-electron GIAO integrals will be done analytically
     -> SCF done analytically but RIJK requested in GIAOs
     -> using RIJK
     Making grid for GIAO integrations   ... done
     Test of existence of the V matrix   = 0
     Test of existence of the VCD matrix = 0
     Test of existence of the VO matrix  = 0
     Warning: RI is turned on for GIAO but the V matrix or its Cholesky decomposition are not found - making it
     Calculating V           ... done
     Cholesky decomposition  ... done
     Storing V and VCD       ... done
     Cholesky decomposition-2... done
     Storing VO              ... done
  Getting the pre-screening matrix        ... done
  Extracting occupied and virtual blocks  ... 
  Operator  0  NO=  16 NV= 130 
  One-electron GIAO integrals             ...   done
  Transforming and RHS contribution       ...   done
  Projecting overlap derivatives          ...   done
  Building G(dS/dB_ij)                    ...   done
  Transforming to MO basis/RHS contribs.  ...   done
  Calculating F[B](P)                     ...  (RI-JK)
---------------------
RI-GIAO-TRANSFORMATION (AUX index driven)
----------------------

Dimension of the orbital-basis         ... 146
Dimension of the aux-basis             ... 954
Number of (i,a) MOs                    ... 16,130
Number of ij,ia,ab pairs               ... 256,2080,16900
Transformation of internal MOs         ...    0-  15
Transformation of internal/external MOs...    0-  15 to   16- 145

Mapping shells                                 ... done
Making shell addresses                         ... done
Figuring out significant basis function pairs  ... done
  N(Pairs)         ... 10731
  N(Strong pairs)  ... 10693
  Mem-Available    ... 1024 MB
  (p,q) per batch  ... 17583
  N(Batches)       ... 1
Preparing matrix containers                    ... done
Preparing AO buffer                            ... done
Calculating AO integrals and transforming AUX  ... done
Finished RI-GIAO integral generation and aux-index transformation in  4.115 sec
Mapping the MO pairs                            ... done
Getting memory                                  ... done
Second Phase: sorting and transformation of MO indices
Memory available                       ... 1024 MB 
Max. # Aux fcns treated in a batch     ... 954    
Initializing the MO transformation process      ... done
Batch   0: Q=   0 ...  953
   Reading      ... done
   Transforming ... done
Finished transformation of the MO indices in  3.138 sec
Initializing the sorting process                ... done

IJ-Resorting
# of internal pairs                    ... 256
# batches for internal pairs           ... 1
   (0) Reading      ... done
   (0) Writing      ... done
   (1) Reading      ... done
   (1) Writing      ... done
   (2) Reading      ... done
   (2) Writing      ... done
   (3) Reading      ... done
   (3) Writing      ... done
(ij|v) resorting done in     0.024 sec

IA-Resorting
# of internal orbitals                 ... 16
# batches for internal orbitals        ... 1
   (0) Reading      ... done
   (0) Writing      ... done
   (1) Reading      ... done
   (1) Writing      ... done
   (2) Reading      ... done
   (2) Writing      ... done
   (3) Reading      ... done
   (3) Writing      ... done
(ia|v) resorting done in     0.072 sec

  Resorting completed in     0.097 sec
RI-GIAO-Integral transformation completed in     7.396 sec
Reading RI-integrals ... done
Doing RI-JK          ... done
 => dG/dB done
  RI-JK GIAO contributions                ...   done
  DFT XC-terms                            ... done
  Transforming to MO basis/RHS contribs.  ... done
  GIAO profiling information: 
    Total GIAO time               ...      21.2 sec
       Grid setup                 ...       0.2 sec (  0.9%)
       RI-V-matrix setup          ...       0.1 sec (  0.5%)
       GIAO 1-electron integrals  ...       0.0 sec (  0.1%)
       GIAO G(dS/dB) terms        ...       5.1 sec ( 23.9%)
       GIAO RI-JK                 ...       7.1 sec ( 33.6%)
       GIAO RI integral trafo     ...       7.4 sec ( 34.9%)
       GIAO XC-terms              ...       1.2 sec (  5.9%)

  GIAO right hand side done

     CP-SCF ITERATION   0: 
     CP-SCF ITERATION   1:      0.006000905
     CP-SCF ITERATION   2:      0.000031864
     CP-SCF ITERATION   3:      0.000000260

Forming final perturbed densities           ... done
Transforming perturbed density to AO basis  ...  done

Magnetic field perturbation calculated in 41.503 sec

---------------
CHEMICAL SHIFTS
---------------

Note: using conversion factor for au to ppm alpha^2/2 =   26.625677252 
Doing GIAO para- and diamagnetic shielding integrals analytically     ...done
Doing remaining GIAO terms numerically                                ...done
 --------------
 Nucleus   0C :
 --------------

Diamagnetic contribution to the shielding tensor (ppm) : 
           205.684        -25.006        13.599
            31.307        201.489       -40.155
             7.901        -19.905       222.004

Paramagnetic contribution to the shielding tensor (ppm): 
           -24.417         27.879       -15.399
           -33.840        -13.810        47.291
           -11.402         28.200       -43.105

Total shielding tensor (ppm): 
           181.266          2.873        -1.800
            -2.533        187.679         7.136
            -3.501          8.294       178.899


 Diagonalized sT*s matrix:
 
 sDSO           243.784          206.531          178.862  iso=     209.726
 sPSO           -70.121          -24.645           13.434  iso=     -27.111
        ---------------  ---------------  ---------------
 Total          173.662          181.886          192.296  iso=     182.615

 --------------
 Nucleus   1C :
 --------------

Diamagnetic contribution to the shielding tensor (ppm) : 
           233.077        -17.336         0.507
           -16.873        211.277         4.487
            42.363          9.496       208.870

Paramagnetic contribution to the shielding tensor (ppm): 
           -71.389         32.333        -5.838
            37.770        -55.984        -9.782
           -46.085        -15.833       -59.245

Total shielding tensor (ppm): 
           161.687         14.998        -5.331
            20.896        155.292        -5.295
            -3.722         -6.337       149.625


 Diagonalized sT*s matrix:
 
 sDSO           232.063          223.707          197.454  iso=     217.741
 sPSO           -92.091          -75.590          -18.937  iso=     -62.206
        ---------------  ---------------  ---------------
 Total          139.971          148.117          178.517  iso=     155.535

 --------------
 Nucleus   2H :
 --------------

Diamagnetic contribution to the shielding tensor (ppm) : 
            23.192         -1.589         6.415
             3.714         39.061         0.051
            -3.520          6.477        38.526

Paramagnetic contribution to the shielding tensor (ppm): 
             4.125          3.544        -7.998
            -2.045         -5.040        -2.615
             1.918         -8.670        -9.014

Total shielding tensor (ppm): 
            27.317          1.956        -1.583
             1.670         34.021        -2.565
            -1.602         -2.194        29.513


 Diagonalized sT*s matrix:
 
 sDSO            26.431           38.639           35.708  iso=      33.593
 sPSO             0.003           -9.903           -0.029  iso=      -3.309
        ---------------  ---------------  ---------------
 Total           26.434           28.737           35.680  iso=      30.284

 --------------
 Nucleus   3H :
 --------------

Diamagnetic contribution to the shielding tensor (ppm) : 
            30.610         -0.593         4.088
             0.806         10.370        -8.371
             1.468         -9.558        30.293

Paramagnetic contribution to the shielding tensor (ppm): 
             3.463         -1.121        -5.674
            -3.639         17.795         9.586
            -3.744         10.007        -2.352

Total shielding tensor (ppm): 
            34.073         -1.714        -1.586
            -2.833         28.165         1.215
            -2.276          0.449        27.941


 Diagonalized sT*s matrix:
 
 sDSO            29.609           15.842           25.822  iso=      23.758
 sPSO            -2.397           11.692            9.611  iso=       6.302
        ---------------  ---------------  ---------------
 Total           27.212           27.535           35.433  iso=      30.060

 --------------
 Nucleus   4H :
 --------------

Diamagnetic contribution to the shielding tensor (ppm) : 
            30.703         -8.706         1.429
            -7.540         26.519        -1.436
            10.238         -9.890        27.317

Paramagnetic contribution to the shielding tensor (ppm): 
            -1.225          9.117         2.161
             7.255          1.872         4.038
            -6.503         12.029         6.308

Total shielding tensor (ppm): 
            29.479          0.412         3.590
            -0.285         28.391         2.603
             3.735          2.139        33.625


 Diagonalized sT*s matrix:
 
 sDSO            22.194           34.227           28.119  iso=      28.180
 sPSO             4.265           -5.507            8.197  iso=       2.318
        ---------------  ---------------  ---------------
 Total           26.459           28.720           36.316  iso=      30.498

 --------------
 Nucleus   5C :
 --------------

Diamagnetic contribution to the shielding tensor (ppm) : 
           210.673          7.579       -41.251
            19.061        228.994         0.135
           -41.113         11.932       172.491

Paramagnetic contribution to the shielding tensor (ppm): 
          -267.091         -5.294       126.109
           -10.006       -267.103       -16.845
           125.489        -29.280      -140.040

Total shielding tensor (ppm): 
           -56.419          2.284        84.858
             9.055        -38.109       -16.710
            84.376        -17.348        32.451


 Diagonalized sT*s matrix:
 
 sDSO           233.529          144.602          234.027  iso=     204.052
 sPSO          -269.938          -60.125         -344.171  iso=    -224.745
        ---------------  ---------------  ---------------
 Total          -36.409           84.476         -110.145  iso=     -20.693

 --------------
 Nucleus   6H :
 --------------

Diamagnetic contribution to the shielding tensor (ppm) : 
            17.727         14.174         1.021
             7.154         27.402        -4.784
            -5.980         20.720        29.165

Paramagnetic contribution to the shielding tensor (ppm): 
             7.683        -14.293        -0.238
            -7.133          2.151         6.506
             6.290        -19.619         4.318

Total shielding tensor (ppm): 
            25.410         -0.119         0.783
             0.021         29.552         1.722
             0.310          1.101        33.483


 Diagonalized sT*s matrix:
 
 sDSO            18.846           21.851           33.597  iso=      24.765
 sPSO             6.523            7.259            0.370  iso=       4.717
        ---------------  ---------------  ---------------
 Total           25.369           29.110           33.967  iso=      29.482

 --------------
 Nucleus   7H :
 --------------

Diamagnetic contribution to the shielding tensor (ppm) : 
            31.785        -12.289       -11.617
            -0.910         33.715         3.533
             2.870        -16.228         5.895

Paramagnetic contribution to the shielding tensor (ppm): 
            -0.581          9.143        11.921
            -0.387         -3.581        -2.286
            -1.883         17.887        20.623

Total shielding tensor (ppm): 
            31.203         -3.146         0.304
            -1.297         30.134         1.247
             0.988          1.659        26.519


 Diagonalized sT*s matrix:
 
 sDSO            17.378           15.169           38.848  iso=      23.798
 sPSO             8.256           14.074           -5.869  iso=       5.487
        ---------------  ---------------  ---------------
 Total           25.635           29.243           32.978  iso=      29.285

 --------------
 Nucleus   8O :
 --------------

Diamagnetic contribution to the shielding tensor (ppm) : 
           406.290         -0.401        32.619
           -16.289        407.430         1.954
            34.104         -8.223       432.244

Paramagnetic contribution to the shielding tensor (ppm): 
          -635.368        -23.842       309.670
            51.530      -1376.464      -168.176
           309.140       -129.371      -318.302

Total shielding tensor (ppm): 
          -229.078        -24.244       342.289
            35.242       -969.034      -166.222
           343.244       -137.594       113.942


 Diagonalized sT*s matrix:
 
 sDSO           455.906          382.451          407.606  iso=     415.321
 sPSO          -118.828         -809.978        -1401.328  iso=    -776.711
        ---------------  ---------------  ---------------
 Total          337.078         -427.526         -993.721  iso=    -361.390

 --------------
 Nucleus   9H :
 --------------

Diamagnetic contribution to the shielding tensor (ppm) : 
            26.726         -1.195        -9.740
             1.276         27.561         1.430
            -7.504          2.870        17.950

Paramagnetic contribution to the shielding tensor (ppm): 
            -5.156          4.606         9.883
            -0.440         -6.589        -1.730
             7.883         -4.573         2.882

Total shielding tensor (ppm): 
            21.570          3.410         0.143
             0.837         20.971        -0.301
             0.380         -1.703        20.832


 Diagonalized sT*s matrix:
 
 sDSO            31.060           12.692           28.485  iso=      24.079
 sPSO           -12.343            8.470           -4.990  iso=      -2.955
        ---------------  ---------------  ---------------
 Total           18.717           21.161           23.495  iso=      21.125



--------------------------
CHEMICAL SHIELDING SUMMARY (ppm)
--------------------------


  Nucleus  Element    Isotropic     Anisotropy
  -------  -------  ------------   ------------
      0       C          182.615         14.522 
      1       C          155.535         34.473 
      2       H           30.284          8.094 
      3       H           30.060          8.059 
      4       H           30.498          8.727 
      5       C          -20.693       -134.178 
      6       H           29.482          6.727 
      7       H           29.285          5.540 
      8       O         -361.390       -948.497 
      9       H           21.125          3.556 



Timings for individual modules:

Sum of individual times         ...      112.912 sec (=   1.882 min)
GTO integral calculation        ...        0.257 sec (=   0.004 min)   0.2 %
SCF iterations                  ...       49.896 sec (=   0.832 min)  44.2 %
SCF-level EPR/NMR calculation   ...       62.758 sec (=   1.046 min)  55.6 %
                             ****ORCA TERMINATED NORMALLY****
TOTAL RUN TIME: 0 days 0 hours 1 minutes 53 seconds 12 msec
