15
	Energy:       5.2883301
C        -16.99189        1.95639        9.16527
C        -15.90419        1.39223        8.49223
C        -14.80677        2.22164        8.08833
C        -14.71592        3.62387        8.31725
C        -15.85294        4.15109        9.00852
C        -16.95847        3.31882        9.41605
O        -18.04770        3.84033       10.08150
H        -17.91615        4.79232       10.20082
H        -17.83807        1.34265        9.48179
H        -15.90023        5.19723        9.23878
H        -15.92020        0.31497        8.28856
H        -13.99478        1.70116        7.56634
N        -13.59279        4.38573        7.88677
H        -12.85682        3.84708        7.40049
H        -13.30275        5.36562        7.92968


