3
	Energy:       0.0260830
C         -1.50085       -2.42534       -0.12048
S         -1.35832       -4.10523       -0.17934
S         -1.65125       -0.65238       -0.05821
