20
	Energy:      47.9727347
C         -0.98454        2.96855       -0.50407
C         -0.88971        3.97170        0.66874
C          0.47814        2.58853       -0.74983
H         -1.44237        3.43560       -1.38164
H         -1.57209        2.08644       -0.23777
C          0.96378        1.84527        0.49624
C          1.03421        2.71239        1.50198
C          0.65000        4.04643        0.92536
H         -1.45959        3.61021        1.53451
H         -1.32532        4.93719        0.38391
H          1.22136        0.79370        0.52642
H          1.30391        2.53398        2.54177
C          1.27390        3.86738       -0.49844
H          0.71337        2.13565       -1.71085
H          0.95157        4.91348        1.51813
C          0.97922        5.09093       -1.37452
H          2.31884        3.47974       -0.63071
H          1.50029        5.05655       -2.33475
H          1.25481        6.03075       -0.87675
H         -0.08424        5.18811       -1.60545
