28
	Energy:      18.0362907
C         -8.83700        2.33004       -0.10418
C         -8.60733        0.87326        0.34797
O         -7.70054        3.14396        0.27627
H         -9.71472        2.72670        0.41253
H         -9.00052        2.39090       -1.18391
C         -6.49368        2.96463       -0.50517
C         -5.28847        3.41862        0.34137
H         -6.56989        3.56810       -1.41323
H         -6.37398        1.91755       -0.78485
O         -5.16807        2.57281        1.51661
H         -5.45473        4.44617        0.67569
H         -4.36840        3.38154       -0.24800
C         -4.10062        1.58629        1.53833
C         -4.29260        0.49798        0.46127
H         -4.10344        1.11461        2.52463
H         -3.14213        2.09237        1.39482
O         -5.61023       -0.07911        0.59764
H         -3.54197       -0.28743        0.58498
H         -4.19114        0.94086       -0.53309
C         -5.98916       -0.99193       -0.45688
C         -7.51951       -1.17406       -0.44734
H         -5.48933       -1.95116       -0.29732
H         -5.68726       -0.57960       -1.42398
O         -8.15160        0.08715       -0.78256
H         -7.86616       -1.52987        0.52751
H         -7.79412       -1.90490       -1.21244
H         -7.86696        0.85104        1.15312
H         -9.54340        0.44291        0.71333
