46
	Energy:      23.2240600
C         -7.80561        0.02000        0.88864
C         -7.41006        1.34510        1.03616
C         -6.25985        1.80819        0.40019
C         -5.48197        0.95601       -0.39868
C         -5.89476       -0.37943       -0.53176
C         -7.04538       -0.84109        0.10458
H         -8.70274       -0.34144        1.38525
H         -7.99797        2.02091        1.65214
H         -5.97688        2.84558        0.55128
H         -5.33346       -1.08516       -1.13671
H         -7.34944       -1.87819       -0.01306
N         -4.33378        1.42383       -1.02312
C         -4.18809        2.84219       -1.40377
C         -3.37454        3.63488       -0.36026
H         -5.17534        3.29927       -1.50989
H         -3.69514        2.92196       -2.37691
O         -1.96879        3.35610       -0.53905
H         -3.67764        3.36024        0.65402
H         -3.53784        4.70531       -0.51236
C         -1.09623        4.05849        0.37672
C          0.35997        3.71777        0.01980
H         -1.31687        3.75194        1.40327
H         -1.25834        5.13449        0.26956
O          0.62664        2.36008        0.43268
H          1.04931        4.38925        0.53839
H          0.49758        3.81207       -1.06138
C          1.77150        1.74523       -0.20332
C          1.81548        0.25089        0.16601
H          2.68688        2.24712        0.12136
H          1.66515        1.83952       -1.28791
O          0.49311       -0.29540       -0.02298
H          2.10728        0.12509        1.21215
H          2.52551       -0.26844       -0.48356
C          0.37852       -1.73246       -0.01318
C         -1.11246       -2.12884        0.04912
H          0.90069       -2.13524        0.85906
H          0.83173       -2.12697       -0.92667
O         -1.89297       -1.37895       -0.91791
H         -1.50790       -1.95855        1.05478
H         -1.20516       -3.19177       -0.18809
C         -2.55671       -0.20164       -0.38858
C         -3.28662        0.51729       -1.53831
H         -1.83211        0.48000        0.06531
H         -3.26991       -0.52477        0.37375
H         -3.72730       -0.21511       -2.21843
H         -2.54118        1.07968       -2.10781
