35
	Energy:      19.4698618
C         -6.88237        0.12130        0.22852
C         -5.94632        1.19369        0.82165
O         -4.81055        1.39668       -0.04919
H         -5.59219        0.86666        1.80366
H         -6.48766        2.13791        0.92570
C         -3.84927        2.36031        0.43863
C         -2.60442        2.32025       -0.46450
H         -3.57052        2.11797        1.46846
H         -4.30250        3.35467        0.40577
O         -1.69953        1.30830        0.03322
H         -2.09521        3.28742       -0.44148
H         -2.89683        2.08389       -1.49193
C         -0.57742        1.03215       -0.83522
C          0.29610       -0.08588       -0.23111
H          0.01686        1.94287       -0.94856
H         -0.94991        0.71603       -1.81401
O         -0.42168       -1.34246       -0.27612
H          0.58663        0.15325        0.79602
H          1.19750       -0.19373       -0.83986
C         -1.14026       -1.69863        0.93091
C         -2.27336       -2.66665        0.55581
H         -1.56650       -0.80686        1.39923
H         -0.44482       -2.17570        1.62611
O         -3.34717       -1.87551        0.00819
H         -2.63520       -3.18736        1.44645
H         -1.92546       -3.39124       -0.18578
C         -4.46451       -2.60956       -0.53179
C         -5.54066       -1.58230       -0.91689
H         -4.85296       -3.30567        0.21692
H         -4.13322       -3.15895       -1.41707
O         -6.23740       -1.17365        0.28632
H         -6.26238       -2.02586       -1.60747
H         -5.06440       -0.72102       -1.39398
H         -7.15908        0.36631       -0.80103
H         -7.78827        0.07114        0.83807
