28
	Energy:       6.8703236
C         -5.97189        1.14662       -0.14715
C         -6.63813       -0.15205        0.33229
S         -6.02973        2.46725        1.11043
H         -6.47113        1.50061       -1.05281
H         -4.92881        0.93621       -0.38474
C         -5.06501        3.82641        0.35152
C         -3.68664        3.38585       -0.17687
H         -4.92648        4.60561        1.10567
H         -5.64413        4.24694       -0.47471
S         -2.73042        2.44561        1.06100
H         -3.10879        4.26285       -0.47979
H         -3.83634        2.75862       -1.05845
C         -1.85187        1.22843        0.02344
C         -1.64088       -0.10568        0.75863
H         -0.88484        1.64918       -0.26401
H         -2.43212        1.04343       -0.88343
S         -3.21255       -0.95883        1.13720
H         -1.11668        0.08779        1.69836
H         -1.02147       -0.76760        0.14786
C         -3.68700       -1.65147       -0.48540
C         -5.00479       -2.44930       -0.43856
H         -2.88672       -2.32699       -0.79873
H         -3.76359       -0.84927       -1.22321
S         -6.49861       -1.49403       -0.89606
H         -5.14371       -2.87562        0.55862
H         -4.92469       -3.27705       -1.14804
H         -7.69909        0.04448        0.50742
H         -6.18777       -0.48128        1.27235
