32
	Energy:      52.7706645
C         -6.15972        2.29633        0.09031
C         -6.10385        0.77064       -0.03807
N         -4.94894        2.84007       -0.53284
H         -6.19157        2.54301        1.17454
H         -7.06841        2.70815       -0.39916
N         -4.87275        0.31470        0.61723
H         -6.09817        0.52491       -1.12264
H         -6.99080        0.29156        0.42997
C         -4.53013        4.16539       -0.06553
H         -4.99906        2.79809       -1.57789
C         -3.01871        4.27919       -0.28667
H         -4.72227        4.28258        1.02366
H         -5.07825        4.96192       -0.61402
C         -4.21738       -0.86264        0.03661
H         -4.96863        0.25162        1.65773
C         -2.71063       -0.71945        0.27279
H         -4.38114       -0.91199       -1.06249
H         -4.61369       -1.79258        0.49790
N         -2.28099        0.53450       -0.35412
H         -2.15256       -1.57944       -0.15606
H         -2.54173       -0.69352        1.37162
C         -1.08319        1.15712        0.21855
H         -2.20782        0.44068       -1.39446
C         -1.13429        2.65257       -0.10900
H         -0.16455        0.68597       -0.19346
H         -1.07467        1.05370        1.32637
N         -2.37759        3.18841        0.45581
H         -2.83197        4.18567       -1.37924
H         -2.63101        5.26214        0.05811
H         -1.11681        2.75443       -1.21606
H         -0.25627        3.18947        0.31093
H         -2.30274        3.38635        1.48092
