39
	Energy:      21.5091676
C         -6.46548        0.14080       -0.13506
C         -5.62425        1.08683        0.74615
O         -4.61396        1.74310       -0.05899
H         -5.14172        0.53075        1.55576
H         -6.28231        1.84649        1.17575
C         -3.88602        2.77689        0.49754
C         -2.51679        2.64001        0.76534
O         -1.82706        1.47950        0.48237
C         -1.67160        1.04814       -0.88938
C         -0.75632       -0.19264       -0.93611
H         -1.20644        1.86063       -1.45394
H         -2.64515        0.82281       -1.33020
O         -1.47173       -1.40145       -0.57252
H          0.10601       -0.05948       -0.27675
H         -0.39683       -0.32084       -1.96033
C         -1.77936       -1.56790        0.83579
C         -2.37964       -2.97045        1.06117
H         -2.48600       -0.80302        1.16793
H         -0.85308       -1.47466        1.40906
O         -3.80573       -3.00339        0.78595
H         -2.24580       -3.24139        2.11162
H         -1.86743       -3.71234        0.44215
C         -4.22169       -2.85445       -0.59687
C         -4.71517       -1.41680       -0.84402
H         -5.04235       -3.55127       -0.78607
H         -3.39167       -3.09550       -1.26695
O         -5.93402       -1.20453       -0.09464
H         -4.91974       -1.26994       -1.90763
H         -3.96102       -0.70106       -0.52003
H         -6.50623        0.49859       -1.16782
H         -7.48200        0.10125        0.26478
C         -4.53187        3.97717        0.80043
C         -3.82560        5.02785        1.38284
C         -2.46958        4.88246        1.66731
C         -1.81820        3.68951        1.36062
H         -0.75972        3.57813        1.58199
H         -4.33406        5.95954        1.61830
H         -1.91876        5.69949        2.12672
H         -5.59002        4.09616        0.58225
