32
	Energy:      21.7688537
C         -7.09368        1.46557        0.53008
C         -7.02435        0.07446        0.47410
C         -5.94116        2.22921        0.35314
C         -4.71860        1.60464        0.11222
C         -4.64673        0.20630        0.06133
C         -5.80209       -0.55511        0.24408
H         -5.75099       -1.64036        0.21925
H         -7.92270       -0.52066        0.61823
H         -5.99569        3.31392        0.39982
H         -8.04613        1.95594        0.71544
O         -3.59511        2.38719       -0.06331
C         -2.96916        2.45569       -1.36583
C         -1.62213        3.18882       -1.23154
H         -3.62522        2.99239       -2.05583
H         -2.80685        1.44684       -1.74753
O         -0.61055        2.49425       -2.00650
H         -1.31268        3.24769       -0.18385
H         -1.72649        4.20277       -1.62589
O         -3.43189       -0.41817       -0.13665
C         -3.22171       -1.26692       -1.28707
C         -1.72267       -1.60714       -1.40922
H         -3.55263       -0.74354       -2.18858
H         -3.80348       -2.18438       -1.16610
O         -0.96361       -0.43168       -1.79410
H         -1.59857       -2.35439       -2.19727
H         -1.33800       -2.01648       -0.47063
C         -0.46010        0.37826       -0.70114
C          0.27863        1.60653       -1.27345
H          0.23888       -0.22320       -0.11399
H         -1.27720        0.69871       -0.05169
H          1.05878        1.26606       -1.95942
H          0.74909        2.16767       -0.46135
