
                                 *****************
                                 * O   R   C   A *
                                 *****************

           --- An Ab Initio, DFT and Semiempirical electronic structure package ---

                  #######################################################
                  #                        -***-                        #
                  #  Department of molecular theory and spectroscopy    #
                  #              Directorship: Frank Neese              #
                  # Max Planck Institute for Chemical Energy Conversion #
                  #                  D-45470 Muelheim/Ruhr              #
                  #                       Germany                       #
                  #                                                     #
                  #                  All rights reserved                #
                  #                        -***-                        #
                  #######################################################


                         Program Version 4.0.0.2 - RELEASE -


 With contributions from (in alphabetic order):
   Daniel Aravena         : Magnetic Properties
   Michael Atanasov       : Ab Initio Ligand Field Theory
   Ute Becker             : Parallelization
   Martin Brehm           : Molecular dynamics
   Dmytro Bykov           : SCF Hessian
   Vijay G. Chilkuri      : MRCI spin determinant printing
   Dipayan Datta          : RHF DLPNO-CCSD density
   Achintya Kumar Dutta   : EOM-CC, STEOM-CC
   Dmitry Ganyushin       : Spin-Orbit,Spin-Spin,Magnetic field MRCI
   Yang Guo               : DLPNO-NEVPT2, CIM, IAO-localization
   Andreas Hansen         : Spin unrestricted coupled pair/coupled cluster methods
   Lee Huntington         : MR-EOM, pCC
   Robert Izsak           : Overlap fitted RIJCOSX, COSX-SCS-MP3, EOM
   Christian Kollmar      : KDIIS, OOCD, Brueckner-CCSD(T), CCSD density
   Simone Kossmann        : Meta GGA functionals, TD-DFT gradient, OOMP2, MP2 Hessian
   Martin Krupicka        : AUTO-CI
   Dagmar Lenk            : GEPOL surface
   Dimitrios Liakos       : Extrapolation schemes; parallel MDCI
   Dimitrios Manganas     : ROCIS; embedding schemes
   Dimitrios Pantazis     : SARC Basis sets
   Taras Petrenko         : DFT Hessian,TD-DFT gradient, ASA, ECA, R-Raman, ABS, FL, XAS/XES, NRVS
   Peter Pinski           : DLPNO-MP2
   Christoph Reimann      : Effective Core Potentials
   Marius Retegan         : Local ZFS, SOC
   Christoph Riplinger    : Optimizer, TS searches, QM/MM, DLPNO-CCSD(T), (RO)-DLPNO pert. Triples
   Tobias Risthaus        : Range-separated hybrids, TD-DFT gradient, RPA, STAB
   Michael Roemelt        : Restricted open shell CIS
   Masaaki Saitow         : Open-shell DLPNO
   Barbara Sandhoefer     : DKH picture change effects
   Kantharuban Sivalingam : CASSCF convergence, NEVPT2, FIC-MRCI
   Georgi Stoychev        : AutoAux
   Boris Wezisla          : Elementary symmetry handling
   Frank Wennmohs         : Technical directorship


 We gratefully acknowledge several colleagues who have allowed us to
 interface, adapt or use parts of their codes:
   Stefan Grimme, W. Hujo, H. Kruse,             : VdW corrections, initial TS optimization,
                  C. Bannwarth                     DFT functionals, gCP, sTDA/sTD-DF
   Ed Valeev                                     : LibInt (2-el integral package), F12 methods
   Garnet Chan, S. Sharma, J. Yang, R. Olivares  : DMRG
   Ulf Ekstrom                                   : XCFun DFT Library
   Mihaly Kallay                                 : mrcc  (arbitrary order and MRCC methods)
   Jiri Pittner, Ondrej Demel                    : Mk-CCSD
   Frank Weinhold                                : gennbo (NPA and NBO analysis)
   Christopher J. Cramer and Donald G. Truhlar   : smd solvation model


 Your calculation uses the libint2 library for the computation of 2-el integrals
 For citations please refer to: http://libint.valeyev.net

 This ORCA versions uses:
   CBLAS   interface :  Fast vector & matrix operations
   LAPACKE interface :  Fast linear algebra routines
   SCALAPACK package :  Parallel linear algebra routines




*****************************************
The coordinations will be read from file: guess.xyz
*****************************************



Information: The global flag for chemical shieldings has been found
             ==>> will calculate the chemical shifts for all atoms in the system

Your calculation utilizes the basis: aug-cc-pVDZ 
    H, B-Ne : Obtained from the ccRepo (grant-hill.group.shef.ac.uk/ccrepo) Feb. 2017
              R. A. Kendall, T. H. Dunning, Jr., R. J. Harrison, J. Chem. Phys. 96, 6796 (1992)
         He : Obtained from the ccRepo (grant-hill.group.shef.ac.uk/ccrepo) Feb. 2017
              D. E. Woon, T. H. Dunning, Jr., J. Chem. Phys. 100, 2975 (1994)
  Li-Be, Na : Obtained from the ccRepo (grant-hill.group.shef.ac.uk/ccrepo) Feb. 2017
              B. P. Prascher, D. E. Woon, K. A. Peterson, T. H. Dunning, Jr., A. K. Wilson, Theor. Chem. Acc. 128, 69 (2011)
         Mg : Obtained from the Peterson Research Group Website (tyr0.chem.wsu.edu/~kipeters) Feb. 2017
              B. P. Prascher, D. E. Woon, K. A. Peterson, T. H. Dunning, Jr., A. K. Wilson, Theor. Chem. Acc. 128, 69 (2011)
      Al-Ar : Obtained from the ccRepo (grant-hill.group.shef.ac.uk/ccrepo) Feb. 2017
              D. E. Woon, T. H. Dunning, Jr., J. Chem. Phys. 98, 1358 (1993)
      Sc-Zn : Obtained from the ccRepo (grant-hill.group.shef.ac.uk/ccrepo) Feb. 2017
              N. B. Balabanov, K. A. Peterson, J. Chem. Phys. 123, 064107 (2005)
              N. B. Balabanov, K. A. Peterson, J. Chem. Phys. 125, 074110 (2006)
      Ga-Kr : Obtained from the ccRepo (grant-hill.group.shef.ac.uk/ccrepo) Feb. 2017
              A. K. Wilson, D. E. Woon, K. A. Peterson, T. H. Dunning, Jr., J. Chem. Phys. 110, 7667 (1999)

================================================================================
                                        WARNINGS
                       Please study these warnings very carefully!
================================================================================

Warning: TCutStore was < 0. Adjusted to Thresh (uncritical)

INFO   : the flag for use of LIBINT has been found!

CheckInput: checking for shifts: .

Warning: GIAO NMR calculation needs an auxiliary basis but have none
           ===>>> Using AutoAux, but it is safer for you to specify one in the input
           ===>>> Done building the auxiliary basis
           ===>>> Writing GBW file done
================================================================================
                                       INPUT FILE
================================================================================
NAME = /home/jan/SoftwareDevelopment/ORCAunleashed/output/nitrobenzene/nitrobenzene.in
|  1> !aug-cc-pVDZ B3LYP NMR
|  2> 
|  3> *xyzfile 0 1 guess.xyz
|  4> 
|  5> 
|  6>                          ****END OF INPUT****
================================================================================

                       ****************************
                       * Single Point Calculation *
                       ****************************

---------------------------------
CARTESIAN COORDINATES (ANGSTROEM)
---------------------------------
  C    -19.529460    2.358330   10.578980
  C    -18.295990    2.311200    9.927040
  C    -17.540400    3.475150    9.773430
  C    -18.011570    4.692240   10.269410
  C    -19.243530    4.751880   10.923160
  C    -19.999560    3.581640   11.075830
  H    -20.106070    1.442490   10.690550
  H    -19.596550    5.707970   11.303890
  H    -17.417250    5.594980   10.145920
  H    -16.579500    3.433530    9.264640
  H    -17.922350    1.366540    9.537920
  N    -21.295720    3.637710   11.762600
  O    -21.676040    4.737710   12.189090
  O    -21.934990    2.581820   11.876410

----------------------------
CARTESIAN COORDINATES (A.U.)
----------------------------
  NO LB      ZA    FRAG     MASS         X           Y           Z
   0 C     6.0000    0    12.011  -36.905331    4.456598   19.991375
   1 C     6.0000    0    12.011  -34.574410    4.367535   18.759387
   2 C     6.0000    0    12.011  -33.146552    6.567082   18.469106
   3 C     6.0000    0    12.011  -34.036935    8.867049   19.406372
   4 C     6.0000    0    12.011  -36.365002    8.979752   20.641781
   5 C     6.0000    0    12.011  -37.793691    6.768319   20.930285
   6 H     1.0000    0     1.008  -37.994966    2.725911   20.202212
   7 H     1.0000    0     1.008  -37.032113   10.786500   21.361256
   8 H     1.0000    0     1.008  -32.913833   10.572980   19.173010
   9 H     1.0000    0     1.008  -31.330714    6.488431   17.507632
  10 H     1.0000    0     1.008  -33.868333    2.582386   18.024057
  11 N     7.0000    0    14.007  -40.243079    6.874276   22.228093
  12 O     8.0000    0    15.999  -40.961779    8.952974   23.034042
  13 O     8.0000    0    15.999  -41.451124    4.878933   22.443162

--------------------------------
INTERNAL COORDINATES (ANGSTROEM)
--------------------------------
 C      0   0   0     0.000000000000     0.00000000     0.00000000
 C      1   0   0     1.395956747682     0.00000000     0.00000000
 C      2   1   0     1.396170434689   120.09469762     0.00000000
 C      3   2   1     1.396175274598   120.33262138     0.00000000
 C      4   3   2     1.395948220279   120.09518048     0.00000000
 C      1   2   3     1.401549602618   119.43263595     0.00000000
 H      1   2   3     1.087975120396   119.19394016   180.00171540
 H      5   4   3     1.087973594073   119.19527921   179.99896708
 H      4   3   2     1.087844451243   119.91425653   180.00176200
 H      3   2   1     1.088084692705   119.83387367   179.99491795
 H      2   1   3     1.087843619092   119.99072638   179.99754355
 N      6   1   2     1.467933112713   119.69327379   180.01360751
 O     12   6   1     1.239571305936   117.76057890   179.91764147
 O     12   6   1     1.239565464629   117.76145533   359.92081710

---------------------------
INTERNAL COORDINATES (A.U.)
---------------------------
 C      0   0   0     0.000000000000     0.00000000     0.00000000
 C      1   0   0     2.637975947919     0.00000000     0.00000000
 C      2   1   0     2.638379757840   120.09469762     0.00000000
 C      3   2   1     2.638388903943   120.33262138     0.00000000
 C      4   3   2     2.637959833462   120.09518048     0.00000000
 C      1   2   3     2.648544912055   119.43263595     0.00000000
 H      1   2   3     2.055975018068   119.19394016   180.00171540
 H      5   4   3     2.055972133736   119.19527921   179.99896708
 H      4   3   2     2.055728089155   119.91425653   180.00176200
 H      3   2   1     2.056182079725   119.83387367   179.99491795
 H      2   1   3     2.055726516618   119.99072638   179.99754355
 N      6   1   2     2.773991565943   119.69327379   180.01360751
 O     12   6   1     2.342450291686   117.76057890   179.91764147
 O     12   6   1     2.342439253215   117.76145533   359.92081710

---------------------
BASIS SET INFORMATION
---------------------
There are 4 groups of distinct atoms

 Group   1 Type C   : 18s5p2d contracted to 4s3p2d pattern {8811/311/11}
 Group   2 Type H   : 5s2p contracted to 3s2p pattern {311/11}
 Group   3 Type N   : 18s5p2d contracted to 4s3p2d pattern {8811/311/11}
 Group   4 Type O   : 18s5p2d contracted to 4s3p2d pattern {8811/311/11}

Atom   0C    basis set group =>   1
Atom   1C    basis set group =>   1
Atom   2C    basis set group =>   1
Atom   3C    basis set group =>   1
Atom   4C    basis set group =>   1
Atom   5C    basis set group =>   1
Atom   6H    basis set group =>   2
Atom   7H    basis set group =>   2
Atom   8H    basis set group =>   2
Atom   9H    basis set group =>   2
Atom  10H    basis set group =>   2
Atom  11N    basis set group =>   3
Atom  12O    basis set group =>   4
Atom  13O    basis set group =>   4

INFORMATION: There is an auxiliary basis set but the global RI flag is NOT set

-------------------------------
AUXILIARY BASIS SET INFORMATION
-------------------------------
There are 4 groups of distinct atoms

 Group   1 Type C   : 18s15p14d5f contracted to 18s15p14d5f pattern {111111111111111111/111111111111111/11111111111111/11111}
 Group   2 Type H   : 12s5p4d contracted to 12s5p4d pattern {111111111111/11111/1111}
 Group   3 Type N   : 18s15p14d5f contracted to 18s15p14d5f pattern {111111111111111111/111111111111111/11111111111111/11111}
 Group   4 Type O   : 18s15p14d5f contracted to 18s15p14d5f pattern {111111111111111111/111111111111111/11111111111111/11111}

Atom   0C    basis set group =>   1
Atom   1C    basis set group =>   1
Atom   2C    basis set group =>   1
Atom   3C    basis set group =>   1
Atom   4C    basis set group =>   1
Atom   5C    basis set group =>   1
Atom   6H    basis set group =>   2
Atom   7H    basis set group =>   2
Atom   8H    basis set group =>   2
Atom   9H    basis set group =>   2
Atom  10H    basis set group =>   2
Atom  11N    basis set group =>   3
Atom  12O    basis set group =>   4
Atom  13O    basis set group =>   4

Checking for AutoStart:
The File: /home/jan/SoftwareDevelopment/ORCAunleashed/output/nitrobenzene/nitrobenzene.gbw exists
Trying to determine its content:
     ... Fine, the file contains calculation information
     ... Fine, the calculation information was read
     ... Fine, the file contains a basis set
     ... Fine, the basis set was read
     ... Fine, the file contains a geometry
     ... Fine, the geometry was read
     ... The file does not contain orbitals - skipping AutoStart
------------------------------------------------------------------------------
                           ORCA GTO INTEGRAL CALCULATION
------------------------------------------------------------------------------

                         BASIS SET STATISTICS AND STARTUP INFO

 # of primitive gaussian shells          ...  260
 # of primitive gaussian functions       ...  442
 # of contracted shells                  ...  106
 # of contracted basis functions         ...  252
 Highest angular momentum                ...    2
 Maximum contraction depth               ...    8
 Integral package used                   ... LIBINT
 Integral threshhold            Thresh   ...  1.000e-10
 Primitive cut-off              TCut     ...  1.000e-11


------------------------------ INTEGRAL EVALUATION ----------------------------


 * One electron integrals 
 Pre-screening matrix                    ... done
 Shell pair data                         ... done (   0.005 sec)

-------------------------------------------------------------------------------
                                 ORCA SCF
-------------------------------------------------------------------------------

------------
SCF SETTINGS
------------
Hamiltonian:
 Density Functional     Method          .... DFT(GTOs)
 Exchange Functional    Exchange        .... B88
   X-Alpha parameter    XAlpha          ....  0.666667
   Becke's b parameter  XBeta           ....  0.004200
 Correlation Functional Correlation     .... LYP
 LDA part of GGA corr.  LDAOpt          .... VWN-5
 Gradients option       PostSCFGGA      .... off
 Hybrid DFT is turned on
   Fraction HF Exchange ScalHFX         ....  0.200000
   Scaling of DF-GGA-X  ScalDFX         ....  0.720000
   Scaling of DF-GGA-C  ScalDFC         ....  0.810000
   Scaling of DF-LDA-C  ScalLDAC        ....  1.000000
   Perturbative correction              ....  0.000000
   NL short-range parameter             ....  4.800000


General Settings:
 Integral files         IntName         .... /home/jan/SoftwareDevelopment/ORCAunleashed/output/nitrobenzene/nitrobenzene
 Hartree-Fock type      HFTyp           .... RHF
 Total Charge           Charge          ....    0
 Multiplicity           Mult            ....    1
 Number of Electrons    NEL             ....   64
 Basis Dimension        Dim             ....  252
 Nuclear Repulsion      ENuc            ....    410.1449655919 Eh

Convergence Acceleration:
 DIIS                   CNVDIIS         .... on
   Start iteration      DIISMaxIt       ....    12
   Startup error        DIISStart       ....  0.200000
   # of expansion vecs  DIISMaxEq       ....     5
   Bias factor          DIISBfac        ....   1.050
   Max. coefficient     DIISMaxC        ....  10.000
 Newton-Raphson         CNVNR           .... off
 SOSCF                  CNVSOSCF        .... on
   Start iteration      SOSCFMaxIt      ....   150
   Startup grad/error   SOSCFStart      ....  0.003300
 Level Shifting         CNVShift        .... on
   Level shift para.    LevelShift      ....    0.2500
   Turn off err/grad.   ShiftErr        ....    0.0010
 Zerner damping         CNVZerner       .... off
 Static damping         CNVDamp         .... on
   Fraction old density DampFac         ....    0.7000
   Max. Damping (<1)    DampMax         ....    0.9800
   Min. Damping (>=0)   DampMin         ....    0.0000
   Turn off err/grad.   DampErr         ....    0.1000
 Fernandez-Rico         CNVRico         .... off

SCF Procedure:
 Maximum # iterations   MaxIter         ....   125
 SCF integral mode      SCFMode         .... Direct
   Integral package                     .... LIBINT
 Reset frequeny         DirectResetFreq ....    20
 Integral Threshold     Thresh          ....  1.000e-10 Eh
 Primitive CutOff       TCut            ....  1.000e-11 Eh

Convergence Tolerance:
 Convergence Check Mode ConvCheckMode   .... Total+1el-Energy
 Convergence forced     ConvForced      .... 0
 Energy Change          TolE            ....  1.000e-06 Eh
 1-El. energy change                    ....  1.000e-03 Eh
 Orbital Gradient       TolG            ....  5.000e-05
 Orbital Rotation angle TolX            ....  5.000e-05
 DIIS Error             TolErr          ....  1.000e-06


Diagonalization of the overlap matrix:
Smallest eigenvalue                        ... 1.355e-04
Time for diagonalization                   ...    0.009 sec
Threshold for overlap eigenvalues          ... 1.000e-08
Number of eigenvalues below threshold      ... 0
Time for construction of square roots      ...    0.002 sec
Total time needed                          ...    0.012 sec

-------------------
DFT GRID GENERATION
-------------------

General Integration Accuracy     IntAcc      ...  4.340
Radial Grid Type                 RadialGrid  ... Gauss-Chebyshev
Angular Grid (max. acc.)         AngularGrid ... Lebedev-110
Angular grid pruning method      GridPruning ... 3 (G Style)
Weight generation scheme         WeightScheme... Becke
Basis function cutoff            BFCut       ...    1.0000e-10
Integration weight cutoff        WCut        ...    1.0000e-14
Grids for H and He will be reduced by one unit

# of grid points (after initial pruning)     ...  19040 (   0.0 sec)
# of grid points (after weights+screening)   ...  17801 (   0.0 sec)
nearest neighbour list constructed           ...    0.0 sec
Grid point re-assignment to atoms done       ...    0.0 sec
Grid point division into batches done        ...    0.0 sec
Reduced shell lists constructed in    0.5 sec

Total number of grid points                  ...    17801
Total number of batches                      ...      286
Average number of points per batch           ...       62
Average number of grid points per atom       ...     1272
Average number of shells per batch           ...    88.46 (83.45%)
Average number of basis functions per batch  ...   210.61 (83.58%)
Average number of large shells per batch     ...    74.11 (83.79%)
Average number of large basis fcns per batch ...   178.34 (84.68%)
Maximum spatial batch extension              ...  18.67, 20.40, 25.60 au
Average spatial batch extension              ...   4.14,  3.78,  4.60 au

Time for grid setup =    0.564 sec

------------------------------
INITIAL GUESS: MODEL POTENTIAL
------------------------------
Loading Hartree-Fock densities                     ... done
Calculating cut-offs                               ... done
Setting up the integral package                    ... done
Initializing the effective Hamiltonian             ... done
Starting the Coulomb interaction                   ... done (   0.6 sec)
Reading the grid                                   ... done
Mapping shells                                     ... done
Starting the XC term evaluation                    ... done (   0.9 sec)
  promolecular density results
     # of electrons  =     63.991525517
     EX              =    -55.259076757
     EC              =     -2.208307984
     EX+EC           =    -57.467384741
Transforming the Hamiltonian                       ... done (   0.0 sec)
Diagonalizing the Hamiltonian                      ... done (   0.0 sec)
Back transforming the eigenvectors                 ... done (   0.0 sec)
Now organizing SCF variables                       ... done
                      ------------------
                      INITIAL GUESS DONE (   2.1 sec)
                      ------------------
--------------
SCF ITERATIONS
--------------
ITER       Energy         Delta-E        Max-DP      RMS-DP      [F,P]     Damp
               ***  Starting incremental Fock matrix formation  ***
  0   -436.3360142032   0.000000000000 2.01241161  0.02090719  8.8021829 0.7000
  1   -436.4526364875  -0.116622284237 1.07265288  0.01032612  4.1551063 0.7000
  2   -436.4907084081  -0.038071920633 0.30700218  0.00290433  1.9673940 0.7000
  3   -436.5154750167  -0.024766608591 0.13902002  0.00140556  1.1054298 0.7000
                      *** Initiating the SOSCF procedure ***
                      *** Re-Reading the Fockian *** 
                      *** Removing any level shift *** 
ITER      Energy       Delta-E        Grad      Rot      Max-DP    RMS-DP
  4   -436.53345977  -0.0179847498  0.002428  0.002428  0.276131  0.002904
               *** Restarting incremental Fock matrix formation ***
  5   -436.57439659  -0.0409368207  0.007771  0.018195  0.386688  0.003960
  6   -436.57283175   0.0015648420  0.016831  0.012741  0.267101  0.002911
  7   -436.57501243  -0.0021806801  0.000719  0.001363  0.063151  0.000610
  8   -436.57501385  -0.0000014257  0.000568  0.001073  0.024566  0.000266
  9   -436.57503550  -0.0000216520  0.000231  0.000725  0.017377  0.000152
 10   -436.57503456   0.0000009391  0.000290  0.000424  0.013916  0.000111
 11   -436.57503659  -0.0000020290  0.000036  0.000155  0.005112  0.000034
                 **** Energy Check signals convergence ****
              ***Rediagonalizing the Fockian in SOSCF/NRSCF***

               *****************************************************
               *                     SUCCESS                       *
               *           SCF CONVERGED AFTER  12 CYCLES          *
               *****************************************************

Setting up the final grid:

General Integration Accuracy     IntAcc      ...  4.670
Radial Grid Type                 RadialGrid  ... Gauss-Chebyshev
Angular Grid (max. acc.)         AngularGrid ... Lebedev-302
Angular grid pruning method      GridPruning ... 3 (G Style)
Weight generation scheme         WeightScheme... Becke
Basis function cutoff            BFCut       ...    1.0000e-10
Integration weight cutoff        WCut        ...    1.0000e-14
Grids for H and He will be reduced by one unit

# of grid points (after initial pruning)     ...  72878 (   0.0 sec)
# of grid points (after weights+screening)   ...  67378 (   0.1 sec)
nearest neighbour list constructed           ...    0.0 sec
Grid point re-assignment to atoms done       ...    0.0 sec
Grid point division into batches done        ...    0.2 sec
Reduced shell lists constructed in    2.0 sec

Total number of grid points                  ...    67378
Total number of batches                      ...     1062
Average number of points per batch           ...       63
Average number of grid points per atom       ...     4813
Average number of shells per batch           ...    83.62 (78.89%)
Average number of basis functions per batch  ...   198.72 (78.86%)
Average number of large shells per batch     ...    68.75 (82.21%)
Average number of large basis fcns per batch ...   164.92 (82.99%)
Maximum spatial batch extension              ...  17.91, 18.67, 20.34 au
Average spatial batch extension              ...   2.66,  2.55,  2.83 au

Final grid set up in    2.2 sec
Final integration                            ... done (   3.0 sec)
Change in XC energy                          ...    -0.000128311
Integrated number of electrons               ...    64.000049241
Previous integrated no of electrons          ...    63.997138472

----------------
TOTAL SCF ENERGY
----------------

Total Energy       :         -436.57516486 Eh          -11879.81419 eV

Components:
Nuclear Repulsion  :          410.14496559 Eh           11160.61191 eV
Electronic Energy  :         -846.72013045 Eh          -23040.42610 eV
One Electron Energy:        -1405.06053022 Eh          -38233.64079 eV
Two Electron Energy:          558.34039977 Eh           15193.21469 eV

Virial components:
Potential Energy   :         -870.65163371 Eh          -23691.63541 eV
Kinetic Energy     :          434.07646885 Eh           11811.82122 eV
Virial Ratio       :            2.00575635


DFT components:
N(Alpha)           :       32.000024620389 electrons
N(Beta)            :       32.000024620389 electrons
N(Total)           :       64.000049240778 electrons
E(X)               :      -44.400641783890 Eh       
E(C)               :       -2.599543412945 Eh       
E(XC)              :      -47.000185196835 Eh       

---------------
SCF CONVERGENCE
---------------

  Last Energy change         ...    4.7780e-08  Tolerance :   1.0000e-06
  Last MAX-Density change    ...    4.2054e-03  Tolerance :   1.0000e-05
  Last RMS-Density change    ...    3.1357e-05  Tolerance :   1.0000e-06
  Last Orbital Gradient      ...    1.0513e-04  Tolerance :   5.0000e-05
  Last Orbital Rotation      ...    1.5451e-04  Tolerance :   5.0000e-05

             **** THE GBW FILE WAS UPDATED (/home/jan/SoftwareDevelopment/ORCAunleashed/output/nitrobenzene/nitrobenzene.gbw) ****
             **** DENSITY FILE WAS UPDATED (/home/jan/SoftwareDevelopment/ORCAunleashed/output/nitrobenzene/nitrobenzene.scfp.tmp) ****
             **** ENERGY FILE WAS UPDATED (/home/jan/SoftwareDevelopment/ORCAunleashed/output/nitrobenzene/nitrobenzene.en.tmp) ****
----------------
ORBITAL ENERGIES
----------------

  NO   OCC          E(Eh)            E(eV) 
   0   2.0000     -19.188046      -522.1333 
   1   2.0000     -19.187626      -522.1218 
   2   2.0000     -14.574511      -396.5926 
   3   2.0000     -10.262730      -279.2631 
   4   2.0000     -10.226821      -278.2860 
   5   2.0000     -10.226534      -278.2782 
   6   2.0000     -10.223320      -278.1907 
   7   2.0000     -10.220574      -278.1160 
   8   2.0000     -10.220471      -278.1132 
   9   2.0000      -1.228434       -33.4274 
  10   2.0000      -1.057589       -28.7785 
  11   2.0000      -0.899259       -24.4701 
  12   2.0000      -0.817819       -22.2540 
  13   2.0000      -0.782028       -21.2801 
  14   2.0000      -0.713712       -19.4211 
  15   2.0000      -0.639395       -17.3988 
  16   2.0000      -0.608425       -16.5561 
  17   2.0000      -0.570631       -15.5277 
  18   2.0000      -0.537130       -14.6160 
  19   2.0000      -0.523348       -14.2410 
  20   2.0000      -0.518111       -14.0985 
  21   2.0000      -0.479892       -13.0585 
  22   2.0000      -0.473799       -12.8927 
  23   2.0000      -0.453437       -12.3386 
  24   2.0000      -0.399815       -10.8795 
  25   2.0000      -0.395055       -10.7500 
  26   2.0000      -0.378367       -10.2959 
  27   2.0000      -0.321321        -8.7436 
  28   2.0000      -0.319926        -8.7056 
  29   2.0000      -0.301921        -8.2157 
  30   2.0000      -0.292252        -7.9526 
  31   2.0000      -0.287162        -7.8141 
  32   0.0000      -0.106840        -2.9073 
  33   0.0000      -0.043267        -1.1774 
  34   0.0000      -0.017878        -0.4865 
  35   0.0000      -0.016988        -0.4623 
  36   0.0000       0.001832         0.0498 
  37   0.0000       0.008061         0.2193 
  38   0.0000       0.028566         0.7773 
  39   0.0000       0.030118         0.8196 
  40   0.0000       0.043935         1.1955 
  41   0.0000       0.045338         1.2337 
  42   0.0000       0.071715         1.9515 
  43   0.0000       0.073114         1.9895 
  44   0.0000       0.076878         2.0920 
  45   0.0000       0.083796         2.2802 
  46   0.0000       0.086811         2.3623 
  47   0.0000       0.087301         2.3756 
  48   0.0000       0.091402         2.4872 
  49   0.0000       0.100427         2.7328 
  50   0.0000       0.101673         2.7667 
  51   0.0000       0.110296         3.0013 
  52   0.0000       0.112858         3.0710 
  53   0.0000       0.117438         3.1957 
  54   0.0000       0.121112         3.2956 
  55   0.0000       0.122405         3.3308 
  56   0.0000       0.130322         3.5462 
  57   0.0000       0.130709         3.5568 
  58   0.0000       0.149470         4.0673 
  59   0.0000       0.160550         4.3688 
  60   0.0000       0.161812         4.4031 
  61   0.0000       0.163678         4.4539 
  62   0.0000       0.173613         4.7243 
  63   0.0000       0.193966         5.2781 
  64   0.0000       0.206240         5.6121 
  65   0.0000       0.213273         5.8035 
  66   0.0000       0.217546         5.9197 
  67   0.0000       0.218845         5.9551 
  68   0.0000       0.225720         6.1421 
  69   0.0000       0.228735         6.2242 
  70   0.0000       0.233384         6.3507 
  71   0.0000       0.234935         6.3929 
  72   0.0000       0.239356         6.5132 
  73   0.0000       0.244645         6.6571 
  74   0.0000       0.255042         6.9400 
  75   0.0000       0.258073         7.0225 
  76   0.0000       0.270349         7.3566 
  77   0.0000       0.282345         7.6830 
  78   0.0000       0.286085         7.7848 
  79   0.0000       0.295113         8.0304 
  80   0.0000       0.300079         8.1656 
  81   0.0000       0.302206         8.2235 
  82   0.0000       0.307820         8.3762 
  83   0.0000       0.308730         8.4010 
  84   0.0000       0.309431         8.4200 
  85   0.0000       0.309744         8.4286 
  86   0.0000       0.329886         8.9767 
  87   0.0000       0.332053         9.0356 
  88   0.0000       0.343957         9.3595 
  89   0.0000       0.344533         9.3752 
  90   0.0000       0.378948        10.3117 
  91   0.0000       0.382865        10.4183 
  92   0.0000       0.406142        11.0517 
  93   0.0000       0.407399        11.0859 
  94   0.0000       0.411387        11.1944 
  95   0.0000       0.411546        11.1987 
  96   0.0000       0.422573        11.4988 
  97   0.0000       0.445631        12.1262 
  98   0.0000       0.446731        12.1562 
  99   0.0000       0.453690        12.3455 
 100   0.0000       0.457995        12.4627 
 101   0.0000       0.487189        13.2571 
 102   0.0000       0.488161        13.2835 
 103   0.0000       0.491425        13.3723 
 104   0.0000       0.500366        13.6157 
 105   0.0000       0.512079        13.9344 
 106   0.0000       0.528593        14.3838 
 107   0.0000       0.537730        14.6324 
 108   0.0000       0.550744        14.9865 
 109   0.0000       0.556947        15.1553 
 110   0.0000       0.565159        15.3788 
 111   0.0000       0.570750        15.5309 
 112   0.0000       0.572211        15.5706 
 113   0.0000       0.586350        15.9554 
 114   0.0000       0.603932        16.4338 
 115   0.0000       0.604652        16.4534 
 116   0.0000       0.609598        16.5880 
 117   0.0000       0.621017        16.8987 
 118   0.0000       0.622645        16.9430 
 119   0.0000       0.629768        17.1369 
 120   0.0000       0.655892        17.8477 
 121   0.0000       0.658721        17.9247 
 122   0.0000       0.661818        18.0090 
 123   0.0000       0.695235        18.9183 
 124   0.0000       0.706414        19.2225 
 125   0.0000       0.716677        19.5018 
 126   0.0000       0.733076        19.9480 
 127   0.0000       0.734125        19.9766 
 128   0.0000       0.737850        20.0779 
 129   0.0000       0.741878        20.1875 
 130   0.0000       0.744391        20.2559 
 131   0.0000       0.747301        20.3351 
 132   0.0000       0.763569        20.7778 
 133   0.0000       0.765375        20.8269 
 134   0.0000       0.776467        21.1287 
 135   0.0000       0.807560        21.9748 
 136   0.0000       0.830288        22.5933 
 137   0.0000       0.835690        22.7403 
 138   0.0000       0.856775        23.3140 
 139   0.0000       0.881228        23.9794 
 140   0.0000       0.885350        24.0916 
 141   0.0000       0.900709        24.5095 
 142   0.0000       0.925931        25.1959 
 143   0.0000       0.944650        25.7052 
 144   0.0000       0.969547        26.3827 
 145   0.0000       1.011608        27.5273 
 146   0.0000       1.017282        27.6817 
 147   0.0000       1.036576        28.2067 
 148   0.0000       1.052500        28.6400 
 149   0.0000       1.053000        28.6536 
 150   0.0000       1.077375        29.3169 
 151   0.0000       1.080301        29.3965 
 152   0.0000       1.105008        30.0688 
 153   0.0000       1.109249        30.1842 
 154   0.0000       1.150573        31.3087 
 155   0.0000       1.179332        32.0913 
 156   0.0000       1.184832        32.2409 
 157   0.0000       1.205727        32.8095 
 158   0.0000       1.239077        33.7170 
 159   0.0000       1.262527        34.3551 
 160   0.0000       1.267555        34.4919 
 161   0.0000       1.271683        34.6042 
 162   0.0000       1.278230        34.7824 
 163   0.0000       1.296124        35.2693 
 164   0.0000       1.319146        35.8958 
 165   0.0000       1.335747        36.3475 
 166   0.0000       1.341757        36.5111 
 167   0.0000       1.360760        37.0282 
 168   0.0000       1.366747        37.1911 
 169   0.0000       1.378840        37.5201 
 170   0.0000       1.383545        37.6482 
 171   0.0000       1.409245        38.3475 
 172   0.0000       1.416176        38.5361 
 173   0.0000       1.422552        38.7096 
 174   0.0000       1.427134        38.8343 
 175   0.0000       1.428543        38.8726 
 176   0.0000       1.462314        39.7916 
 177   0.0000       1.471524        40.0422 
 178   0.0000       1.482336        40.3364 
 179   0.0000       1.484040        40.3828 
 180   0.0000       1.528545        41.5938 
 181   0.0000       1.528870        41.6027 
 182   0.0000       1.562476        42.5171 
 183   0.0000       1.570964        42.7481 
 184   0.0000       1.612482        43.8779 
 185   0.0000       1.615612        43.9630 
 186   0.0000       1.640759        44.6473 
 187   0.0000       1.648817        44.8666 
 188   0.0000       1.682552        45.7846 
 189   0.0000       1.685970        45.8776 
 190   0.0000       1.690154        45.9914 
 191   0.0000       1.713438        46.6250 
 192   0.0000       1.715619        46.6844 
 193   0.0000       1.719107        46.7793 
 194   0.0000       1.736564        47.2543 
 195   0.0000       1.751924        47.6723 
 196   0.0000       1.810368        49.2626 
 197   0.0000       1.825170        49.6654 
 198   0.0000       1.851776        50.3894 
 199   0.0000       1.862191        50.6728 
 200   0.0000       1.875388        51.0319 
 201   0.0000       1.897767        51.6409 
 202   0.0000       1.904523        51.8247 
 203   0.0000       1.923742        52.3477 
 204   0.0000       1.952608        53.1332 
 205   0.0000       1.963378        53.4262 
 206   0.0000       1.985507        54.0284 
 207   0.0000       2.011094        54.7247 
 208   0.0000       2.021671        55.0125 
 209   0.0000       2.054472        55.9050 
 210   0.0000       2.067924        56.2711 
 211   0.0000       2.087418        56.8015 
 212   0.0000       2.103944        57.2512 
 213   0.0000       2.137392        58.1614 
 214   0.0000       2.158665        58.7403 
 215   0.0000       2.187112        59.5143 
 216   0.0000       2.246305        61.1251 
 217   0.0000       2.252141        61.2839 
 218   0.0000       2.302213        62.6464 
 219   0.0000       2.332654        63.4747 
 220   0.0000       2.376892        64.6785 
 221   0.0000       2.410930        65.6047 
 222   0.0000       2.419320        65.8330 
 223   0.0000       2.465830        67.0987 
 224   0.0000       2.494193        67.8704 
 225   0.0000       2.498205        67.9796 
 226   0.0000       2.536143        69.0120 
 227   0.0000       2.623277        71.3830 
 228   0.0000       2.680811        72.9486 
 229   0.0000       2.702656        73.5430 
 230   0.0000       2.746197        74.7278 
 231   0.0000       2.796179        76.0879 
 232   0.0000       2.800709        76.2112 
 233   0.0000       2.928077        79.6770 
 234   0.0000       2.936286        79.9004 
 235   0.0000       3.004504        81.7567 
 236   0.0000       3.224451        87.7418 
 237   0.0000       3.255703        88.5922 
 238   0.0000       3.286040        89.4177 
 239   0.0000       3.286231        89.4229 
 240   0.0000       3.288861        89.4944 
 241   0.0000       3.348124        91.1071 
 242   0.0000       3.387295        92.1730 
 243   0.0000       3.407306        92.7175 
 244   0.0000       3.454178        93.9930 
 245   0.0000       3.461845        94.2016 
 246   0.0000       3.574655        97.2713 
 247   0.0000       3.591840        97.7389 
 248   0.0000       3.773255       102.6755 
 249   0.0000       3.813227       103.7632 
 250   0.0000       4.073018       110.8325 
 251   0.0000       4.439389       120.8019 

                    ********************************
                    * MULLIKEN POPULATION ANALYSIS *
                    ********************************

-----------------------
MULLIKEN ATOMIC CHARGES
-----------------------
   0 C :    0.867010
   1 C :    0.620815
   2 C :    0.594238
   3 C :    0.558589
   4 C :    0.889582
   5 C :    1.043374
   6 H :   -0.811694
   7 H :   -0.805239
   8 H :   -0.749028
   9 H :   -0.721899
  10 H :   -0.768999
  11 N :    0.625969
  12 O :   -0.671463
  13 O :   -0.671254
Sum of atomic charges:    0.0000000

--------------------------------
MULLIKEN REDUCED ORBITAL CHARGES
--------------------------------
  0 C s       :    61.668246  s :    61.668246
      pz      :     2.085996  p :     5.614918
      px      :     1.678649
      py      :     1.850274
      dz2     :     0.010606  d :    -0.461009
      dxz     :    -0.038557
      dyz     :    -0.056876
      dx2y2   :    -0.195256
      dxy     :    -0.180926
  1 C s       :    60.906358  s :    60.906358
      pz      :     2.296769  p :     6.355740
      px      :     2.098496
      py      :     1.960474
      dz2     :     0.005394  d :    -0.207784
      dxz     :    -0.001127
      dyz     :    -0.027059
      dx2y2   :    -0.081219
      dxy     :    -0.103773
  2 C s       :    61.988441  s :    61.988441
      pz      :     2.238607  p :     6.410847
      px      :     2.030666
      py      :     2.141575
      dz2     :     0.002993  d :    -0.213515
      dxz     :    -0.021699
      dyz     :    -0.007960
      dx2y2   :    -0.104430
      dxy     :    -0.082418
  3 C s       :    60.910032  s :    60.910032
      pz      :     2.317278  p :     6.512355
      px      :     2.143105
      py      :     2.051971
      dz2     :     0.006842  d :    -0.216603
      dxz     :    -0.007783
      dyz     :    -0.029867
      dx2y2   :    -0.078443
      dxy     :    -0.107351
  4 C s       :    61.731406  s :    61.731406
      pz      :     2.137347  p :     5.582402
      px      :     1.616083
      py      :     1.828971
      dz2     :     0.004693  d :    -0.448162
      dxz     :    -0.038492
      dyz     :    -0.051045
      dx2y2   :    -0.182522
      dxy     :    -0.180796
  5 C s       :    62.846049  s :    62.846049
      pz      :     2.421062  p :     4.815759
      px      :     1.837990
      py      :     0.556708
      dz2     :     0.004077  d :    -0.254729
      dxz     :    -0.031398
      dyz     :    -0.011764
      dx2y2   :    -0.060152
      dxy     :    -0.155493
  6 H s       :     0.117847  s :     0.117847
      pz      :    -0.004976  p :    -0.086416
      px      :    -0.037395
      py      :    -0.044045
  7 H s       :     0.125594  s :     0.125594
      pz      :    -0.006072  p :    -0.084095
      px      :    -0.029755
      py      :    -0.048268
  8 H s       :     0.114547  s :     0.114547
      pz      :    -0.000520  p :    -0.088502
      px      :    -0.029986
      py      :    -0.057996
  9 H s       :     0.165088  s :     0.165088
      pz      :    -0.003064  p :    -0.099069
      px      :    -0.053186
      py      :    -0.042820
 10 H s       :     0.109028  s :     0.109028
      pz      :     0.001419  p :    -0.086161
      px      :    -0.028378
      py      :    -0.059203
 11 N s       :   114.737194  s :   114.737194
      pz      :     7.624040  p :    22.826911
      px      :     7.951914
      py      :     7.250956
      dz2     :     0.015923  d :     0.262954
      dxz     :     0.032405
      dyz     :     0.059715
      dx2y2   :     0.079893
      dxy     :     0.075018
 12 O s       :   175.674940  s :   175.674940
      pz      :    20.307992  p :    62.975583
      px      :    24.613933
      py      :    18.053658
      dz2     :     0.013815  d :     0.083725
      dxz     :     0.004883
      dyz     :     0.025977
      dx2y2   :     0.020105
      dxy     :     0.018945
 13 O s       :   175.674987  s :   175.674987
      pz      :    21.521634  p :    62.980018
      px      :    22.713486
      py      :    18.744898
      dz2     :     0.009591  d :     0.083520
      dxz     :     0.008109
      dyz     :     0.021040
      dx2y2   :     0.021595
      dxy     :     0.023186


                     *******************************
                     * LOEWDIN POPULATION ANALYSIS *
                     *******************************

----------------------
LOEWDIN ATOMIC CHARGES
----------------------
   0 C :   -0.161157
   1 C :   -0.236303
   2 C :   -0.259245
   3 C :   -0.236199
   4 C :   -0.161151
   5 C :   -0.646400
   6 H :    0.289221
   7 H :    0.289244
   8 H :    0.295903
   9 H :    0.295776
  10 H :    0.295576
  11 N :   -0.626963
  12 O :    0.430421
  13 O :    0.431276

-------------------------------
LOEWDIN REDUCED ORBITAL CHARGES
-------------------------------
  0 C s       :     2.170300  s :     2.170300
      pz      :     0.767665  p :     2.742388
      px      :     0.988327
      py      :     0.986396
      dz2     :     0.174919  d :     1.248469
      dxz     :     0.203294
      dyz     :     0.169158
      dx2y2   :     0.310796
      dxy     :     0.390302
  1 C s       :     2.200241  s :     2.200241
      pz      :     0.772960  p :     2.762646
      px      :     0.983175
      py      :     1.006511
      dz2     :     0.129591  d :     1.273416
      dxz     :     0.205460
      dyz     :     0.180777
      dx2y2   :     0.367238
      dxy     :     0.390350
  2 C s       :     2.204388  s :     2.204388
      pz      :     0.751699  p :     2.764592
      px      :     0.925325
      py      :     1.087568
      dz2     :     0.115634  d :     1.290265
      dxz     :     0.154465
      dyz     :     0.238863
      dx2y2   :     0.461110
      dxy     :     0.320192
  3 C s       :     2.200179  s :     2.200179
      pz      :     0.786010  p :     2.763439
      px      :     0.963453
      py      :     1.013976
      dz2     :     0.162565  d :     1.272581
      dxz     :     0.200458
      dyz     :     0.173863
      dx2y2   :     0.303113
      dxy     :     0.432583
  4 C s       :     2.170408  s :     2.170408
      pz      :     0.761017  p :     2.741764
      px      :     0.998191
      py      :     0.982557
      dz2     :     0.135612  d :     1.248978
      dxz     :     0.218592
      dyz     :     0.174982
      dx2y2   :     0.360827
      dxy     :     0.358966
  5 C s       :     2.125944  s :     2.125944
      pz      :     0.757579  p :     2.669488
      px      :     0.826699
      py      :     1.085210
      dz2     :     0.198660  d :     1.850968
      dxz     :     0.302454
      dyz     :     0.294044
      dx2y2   :     0.593117
      dxy     :     0.462694
  6 H s       :     0.397429  s :     0.397429
      pz      :     0.063168  p :     0.313349
      px      :     0.108230
      py      :     0.141951
  7 H s       :     0.397519  s :     0.397519
      pz      :     0.074495  p :     0.313237
      px      :     0.090466
      py      :     0.148276
  8 H s       :     0.405364  s :     0.405364
      pz      :     0.063583  p :     0.298733
      px      :     0.096690
      py      :     0.138461
  9 H s       :     0.406048  s :     0.406048
      pz      :     0.082708  p :     0.298176
      px      :     0.146113
      py      :     0.069355
 10 H s       :     0.405614  s :     0.405614
      pz      :     0.075013  p :     0.298809
      px      :     0.078840
      py      :     0.144956
 11 N s       :     2.431803  s :     2.431803
      pz      :     1.001534  p :     3.365784
      px      :     1.189624
      py      :     1.174626
      dz2     :     0.189316  d :     1.829376
      dxz     :     0.190721
      dyz     :     0.366624
      dx2y2   :     0.549140
      dxy     :     0.533576
 12 O s       :     3.010528  s :     3.010528
      pz      :     1.346548  p :     4.317731
      px      :     1.531495
      py      :     1.439688
      dz2     :     0.030579  d :     0.241320
      dxz     :     0.013384
      dyz     :     0.066458
      dx2y2   :     0.072752
      dxy     :     0.058147
 13 O s       :     3.010623  s :     3.010623
      pz      :     1.378896  p :     4.316835
      px      :     1.479658
      py      :     1.458280
      dz2     :     0.036837  d :     0.241266
      dxz     :     0.014343
      dyz     :     0.037029
      dx2y2   :     0.059445
      dxy     :     0.093612


                      *****************************
                      * MAYER POPULATION ANALYSIS *
                      *****************************

  NA   - Mulliken gross atomic population
  ZA   - Total nuclear charge
  QA   - Mulliken gross atomic charge
  VA   - Mayer's total valence
  BVA  - Mayer's bonded valence
  FA   - Mayer's free valence

  ATOM       NA         ZA         QA         VA         BVA        FA
  0 C      5.1330     6.0000     0.8670     2.3964     2.3964     0.0000
  1 C      5.3792     6.0000     0.6208     3.0613     3.0613     0.0000
  2 C      5.4058     6.0000     0.5942     3.3220     3.3220     0.0000
  3 C      5.4414     6.0000     0.5586     3.2313     3.2313    -0.0000
  4 C      5.1104     6.0000     0.8896     2.3349     2.3349    -0.0000
  5 C      4.9566     6.0000     1.0434     1.5717     1.5717    -0.0000
  6 H      1.8117     1.0000    -0.8117     0.1690     0.1690    -0.0000
  7 H      1.8052     1.0000    -0.8052     0.1855     0.1855     0.0000
  8 H      1.7490     1.0000    -0.7490     0.2419     0.2419    -0.0000
  9 H      1.7219     1.0000    -0.7219     0.2595     0.2595     0.0000
 10 H      1.7690     1.0000    -0.7690     0.2260     0.2260    -0.0000
 11 N      6.3740     7.0000     0.6260     2.3103     2.3103     0.0000
 12 O      8.6715     8.0000    -0.6715     1.2827     1.2827     0.0000
 13 O      8.6713     8.0000    -0.6713     1.2834     1.2834     0.0000

  Mayer bond orders larger than 0.1
B(  0-C ,  1-C ) :   1.7264 B(  0-C ,  2-C ) :  -0.1260 B(  0-C ,  3-C ) :   0.2980 
B(  0-C ,  5-C ) :   0.5713 B(  0-C ,  6-H ) :  -0.3495 B(  0-C , 10-H ) :   0.3989 
B(  1-C ,  2-C ) :   1.5285 B(  1-C ,  3-C ) :  -0.1941 B(  1-C ,  4-C ) :   0.2769 
B(  1-C ,  5-C ) :  -0.3811 B(  1-C ,  6-H ) :   0.3234 B(  1-C ,  9-H ) :   0.2279 
B(  1-C , 10-H ) :  -0.3246 B(  2-C ,  3-C ) :   1.5905 B(  2-C ,  4-C ) :  -0.1297 
B(  2-C ,  8-H ) :   0.3087 B(  2-C ,  9-H ) :  -0.2027 B(  2-C , 10-H ) :   0.3026 
B(  3-C ,  4-C ) :   1.7284 B(  3-C ,  5-C ) :  -0.3967 B(  3-C ,  7-H ) :   0.3493 
B(  3-C ,  8-H ) :  -0.2980 B(  3-C ,  9-H ) :   0.2788 B(  3-C , 10-H ) :  -0.1001 
B(  4-C ,  5-C ) :   0.5559 B(  4-C ,  7-H ) :  -0.3488 B(  4-C ,  8-H ) :   0.3787 
B(  5-C ,  6-H ) :   0.2264 B(  5-C ,  7-H ) :   0.2163 B(  5-C , 11-N ) :   0.6893 
B(  5-C , 12-O ) :   0.1275 B(  5-C , 13-O ) :   0.1324 B( 11-N , 12-O ) :   0.9151 
B( 11-N , 13-O ) :   0.9128 B( 12-O , 13-O ) :   0.2972 

-------
TIMINGS
-------

Total SCF time: 0 days 0 hours 6 min 0 sec 

Total time                  ....     360.452 sec
Sum of individual times     ....     360.387 sec  (100.0%)

Fock matrix formation       ....     356.000 sec  ( 98.8%)
  XC integration            ....      13.435 sec  (  3.8% of F)
    Basis function eval.    ....       6.238 sec  ( 46.4% of XC)
    Density eval.           ....       1.632 sec  ( 12.1% of XC)
    XC-Functional eval.     ....       0.230 sec  (  1.7% of XC)
    XC-Potential eval.      ....       5.237 sec  ( 39.0% of XC)
Diagonalization             ....       0.061 sec  (  0.0%)
Density matrix formation    ....       0.010 sec  (  0.0%)
Population analysis         ....       0.023 sec  (  0.0%)
Initial guess               ....       1.522 sec  (  0.4%)
Orbital Transformation      ....       0.000 sec  (  0.0%)
Orbital Orthonormalization  ....       0.000 sec  (  0.0%)
DIIS solution               ....       0.012 sec  (  0.0%)
SOSCF solution              ....       0.045 sec  (  0.0%)
Grid generation             ....       2.714 sec  (  0.8%)

-------------------------   --------------------
FINAL SINGLE POINT ENERGY      -436.575164856297
-------------------------   --------------------


                            ***************************************
                            *     ORCA property calculations      *
                            ***************************************

                                    ---------------------
                                    Active property flags
                                    ---------------------
   (+) Dipole Moment
   (+) Chemical Shifts


------------------------------------------------------------------------------
                       ORCA ELECTRIC PROPERTIES CALCULATION
------------------------------------------------------------------------------

Dipole Moment Calculation                       ... on
Quadrupole Moment Calculation                   ... off
Polarizability Calculation                      ... off
GBWName                                         ... /home/jan/SoftwareDevelopment/ORCAunleashed/output/nitrobenzene/nitrobenzene.gbw
Electron density file                           ... /home/jan/SoftwareDevelopment/ORCAunleashed/output/nitrobenzene/nitrobenzene.scfp.tmp

-------------
DIPOLE MOMENT
-------------
                                X             Y             Z
Electronic contribution:     -5.27603       0.22684       2.79626
Nuclear contribution   :      6.98754      -0.30246      -3.70143
                        -----------------------------------------
Total Dipole Moment    :      1.71152      -0.07562      -0.90516
                        -----------------------------------------
Magnitude (a.u.)       :      1.93761
Magnitude (Debye)      :      4.92501

------------------------------------------------------------------------------
                                ORCA EPR/NMR CALCULATION
------------------------------------------------------------------------------

GBWName                      ... /home/jan/SoftwareDevelopment/ORCAunleashed/output/nitrobenzene/nitrobenzene.gbw
Electron density file        ... /home/jan/SoftwareDevelopment/ORCAunleashed/output/nitrobenzene/nitrobenzene.scfp.tmp
Spin density file            ... /home/jan/SoftwareDevelopment/ORCAunleashed/output/nitrobenzene/nitrobenzene.scfr.tmp
Treatment of gauge           ... GIAO (approximations 1/2el = 0,3)
Details of the CP(SCF) procedure:
       Solver   = POPLE   
       MaxIter  =    64   
       Tolerance=    1.000e-06
       Op-0     =   0- 31 =>  32-251
Multiplicity                 ... 1
g-tensor                     ... 0
NMR chemical shifts          ... 1
Number of nuclei for epr/nmr ... 14
   Nucleus:   0C 
       Hyperfine : Isotope=   13 I=   0.500 P= 134.188
       Quadrupole: Isotope=   13 I=   0.500 Q=   0.000
       Spin-Orbit: Zeff=   3.600
       rho(0)=N f(grad)=N a(iso)=N a(dip)=N a(orb)=N sigma(nmr)=Y
   Nucleus:   1C 
       Hyperfine : Isotope=   13 I=   0.500 P= 134.188
       Quadrupole: Isotope=   13 I=   0.500 Q=   0.000
       Spin-Orbit: Zeff=   3.600
       rho(0)=N f(grad)=N a(iso)=N a(dip)=N a(orb)=N sigma(nmr)=Y
   Nucleus:   2C 
       Hyperfine : Isotope=   13 I=   0.500 P= 134.188
       Quadrupole: Isotope=   13 I=   0.500 Q=   0.000
       Spin-Orbit: Zeff=   3.600
       rho(0)=N f(grad)=N a(iso)=N a(dip)=N a(orb)=N sigma(nmr)=Y
   Nucleus:   3C 
       Hyperfine : Isotope=   13 I=   0.500 P= 134.188
       Quadrupole: Isotope=   13 I=   0.500 Q=   0.000
       Spin-Orbit: Zeff=   3.600
       rho(0)=N f(grad)=N a(iso)=N a(dip)=N a(orb)=N sigma(nmr)=Y
   Nucleus:   4C 
       Hyperfine : Isotope=   13 I=   0.500 P= 134.188
       Quadrupole: Isotope=   13 I=   0.500 Q=   0.000
       Spin-Orbit: Zeff=   3.600
       rho(0)=N f(grad)=N a(iso)=N a(dip)=N a(orb)=N sigma(nmr)=Y
   Nucleus:   5C 
       Hyperfine : Isotope=   13 I=   0.500 P= 134.188
       Quadrupole: Isotope=   13 I=   0.500 Q=   0.000
       Spin-Orbit: Zeff=   3.600
       rho(0)=N f(grad)=N a(iso)=N a(dip)=N a(orb)=N sigma(nmr)=Y
   Nucleus:   6H 
       Hyperfine : Isotope=    1 I=   0.500 P= 533.552
       Quadrupole: Isotope=    2 I=   1.000 Q=   0.003
       Spin-Orbit: Zeff=   1.000
       rho(0)=N f(grad)=N a(iso)=N a(dip)=N a(orb)=N sigma(nmr)=Y
   Nucleus:   7H 
       Hyperfine : Isotope=    1 I=   0.500 P= 533.552
       Quadrupole: Isotope=    2 I=   1.000 Q=   0.003
       Spin-Orbit: Zeff=   1.000
       rho(0)=N f(grad)=N a(iso)=N a(dip)=N a(orb)=N sigma(nmr)=Y
   Nucleus:   8H 
       Hyperfine : Isotope=    1 I=   0.500 P= 533.552
       Quadrupole: Isotope=    2 I=   1.000 Q=   0.003
       Spin-Orbit: Zeff=   1.000
       rho(0)=N f(grad)=N a(iso)=N a(dip)=N a(orb)=N sigma(nmr)=Y
   Nucleus:   9H 
       Hyperfine : Isotope=    1 I=   0.500 P= 533.552
       Quadrupole: Isotope=    2 I=   1.000 Q=   0.003
       Spin-Orbit: Zeff=   1.000
       rho(0)=N f(grad)=N a(iso)=N a(dip)=N a(orb)=N sigma(nmr)=Y
   Nucleus:  10H 
       Hyperfine : Isotope=    1 I=   0.500 P= 533.552
       Quadrupole: Isotope=    2 I=   1.000 Q=   0.003
       Spin-Orbit: Zeff=   1.000
       rho(0)=N f(grad)=N a(iso)=N a(dip)=N a(orb)=N sigma(nmr)=Y
   Nucleus:  11N 
       Hyperfine : Isotope=   14 I=   1.000 P=  38.571
       Quadrupole: Isotope=   14 I=   1.000 Q=   0.020
       Spin-Orbit: Zeff=   4.550
       rho(0)=N f(grad)=N a(iso)=N a(dip)=N a(orb)=N sigma(nmr)=Y
   Nucleus:  12O 
       Hyperfine : Isotope=   17 I=   2.500 P= -72.357
       Quadrupole: Isotope=   17 I=   2.500 Q=  -0.026
       Spin-Orbit: Zeff=   5.600
       rho(0)=N f(grad)=N a(iso)=N a(dip)=N a(orb)=N sigma(nmr)=Y
   Nucleus:  13O 
       Hyperfine : Isotope=   17 I=   2.500 P= -72.357
       Quadrupole: Isotope=   17 I=   2.500 Q=  -0.026
       Spin-Orbit: Zeff=   5.600
       rho(0)=N f(grad)=N a(iso)=N a(dip)=N a(orb)=N sigma(nmr)=Y
Using LibInt in CPSCF-CP

Forming RHS of the CP-SCF equations         ... 
Calculating right hand sides for GIAO treatment (new)  ... 
  Entering RightHandSide GIAO. ScalHFX=    0.2000 NeedHFX=1
     -> 1-electron GIAO integrals will be done analytically
     -> SCF done analytically but RIJK requested in GIAOs
     -> using RIJK
     Making grid for GIAO integrations   ... done
     Test of existence of the V matrix   = 0
     Test of existence of the VCD matrix = 0
     Test of existence of the VO matrix  = 0
     Warning: RI is turned on for GIAO but the V matrix or its Cholesky decomposition are not found - making it
     Calculating V           ... done
     Cholesky decomposition  ... done
     Storing V and VCD       ... done
     Cholesky decomposition-2... done
     Storing VO              ... done
  Getting the pre-screening matrix        ... done
  Extracting occupied and virtual blocks  ... 
  Operator  0  NO=  32 NV= 220 
  One-electron GIAO integrals             ...   done
  Transforming and RHS contribution       ...   done
  Projecting overlap derivatives          ...   done
  Building G(dS/dB_ij)                    ...   done
  Transforming to MO basis/RHS contribs.  ...   done
  Calculating F[B](P)                     ...  (RI-JK)
---------------------
RI-GIAO-TRANSFORMATION (AUX index driven)
----------------------

Dimension of the orbital-basis         ... 252
Dimension of the aux-basis             ... 1747
Number of (i,a) MOs                    ... 32,220
Number of ij,ia,ab pairs               ... 1024,7040,48400
Transformation of internal MOs         ...    0-  31
Transformation of internal/external MOs...    0-  31 to   32- 251

Mapping shells                                 ... done
Making shell addresses                         ... done
Figuring out significant basis function pairs  ... done
  N(Pairs)         ... 31878
  N(Strong pairs)  ... 31086
  Mem-Available    ... 1024 MB
  (p,q) per batch  ... 9598
  N(Batches)       ... 4
Preparing matrix containers                    ... done
Preparing AO buffer                            ... done
Calculating AO integrals and transforming AUX  ... done
Finished RI-GIAO integral generation and aux-index transformation in 28.478 sec
Mapping the MO pairs                            ... done
Getting memory                                  ... done
Second Phase: sorting and transformation of MO indices
Memory available                       ... 1024 MB 
Max. # Aux fcns treated in a batch     ... 1051    
Initializing the MO transformation process      ... done
Batch   0: Q=   0 ... 1050
   Reading      ... done
   Transforming ... done
Batch   1: Q=1051 ... 1746
   Reading      ... done
   Transforming ... done
Finished transformation of the MO indices in 19.746 sec
Initializing the sorting process                ... done

IJ-Resorting
# of internal pairs                    ... 1024
# batches for internal pairs           ... 1
   (0) Reading      ... done
   (0) Writing      ... done
   (1) Reading      ... done
   (1) Writing      ... done
   (2) Reading      ... done
   (2) Writing      ... done
   (3) Reading      ... done
   (3) Writing      ... done
(ij|v) resorting done in     0.306 sec

IA-Resorting
# of internal orbitals                 ... 32
# batches for internal orbitals        ... 1
   (0) Reading      ... done
   (0) Writing      ... done
   (1) Reading      ... done
   (1) Writing      ... done
   (2) Reading      ... done
   (2) Writing      ... done
   (3) Reading      ... done
   (3) Writing      ... done
(ia|v) resorting done in     0.792 sec

  Resorting completed in     1.102 sec
RI-GIAO-Integral transformation completed in    49.374 sec
Reading RI-integrals ... done
Doing RI-JK          ... done
 => dG/dB done
  RI-JK GIAO contributions                ...   done
  DFT XC-terms                            ... done
  Transforming to MO basis/RHS contribs.  ... done
  GIAO profiling information: 
    Total GIAO time               ...     228.0 sec
       Grid setup                 ...       0.5 sec (  0.2%)
       RI-V-matrix setup          ...       0.4 sec (  0.2%)
       GIAO 1-electron integrals  ...       0.1 sec (  0.0%)
       GIAO G(dS/dB) terms        ...      37.6 sec ( 16.5%)
       GIAO RI-JK                 ...     135.4 sec ( 59.4%)
       GIAO RI integral trafo     ...      49.4 sec ( 21.7%)
       GIAO XC-terms              ...       4.5 sec (  2.0%)
       Right hand side assembly   ...       0.0 sec (  0.0%)

  GIAO right hand side done

     CP-SCF ITERATION   0: 
     CP-SCF ITERATION   1:      0.174277769
     CP-SCF ITERATION   2:      0.000814666
     CP-SCF ITERATION   3:      0.000019031
     CP-SCF ITERATION   4:      0.000000389

Forming final perturbed densities           ... done
Transforming perturbed density to AO basis  ...  done

Magnetic field perturbation calculated in 413.698 sec

---------------
CHEMICAL SHIFTS
---------------

Note: using conversion factor for au to ppm alpha^2/2 =   26.625677252 
Doing GIAO para- and diamagnetic shielding integrals analytically     ...done
Doing remaining GIAO terms numerically                                ...done
 --------------
 Nucleus   0C :
 --------------

Diamagnetic contribution to the shielding tensor (ppm) : 
           236.730          9.596       -42.891
            26.372        235.966         4.547
           -45.858         10.677       176.253

Paramagnetic contribution to the shielding tensor (ppm): 
          -182.518        -56.335       100.464
           -52.003       -238.007       -29.384
           108.028        -24.462       -28.150

Total shielding tensor (ppm): 
            54.212        -46.738        57.573
           -25.631         -2.041       -24.837
            62.170        -13.785       148.104


 Diagonalized sT*s matrix:
 
 sDSO           264.439          234.357          150.153  iso=     216.316
 sPSO          -272.497         -209.331           33.153  iso=    -149.558
        ---------------  ---------------  ---------------
 Total           -8.058           25.026          183.306  iso=      66.758

 --------------
 Nucleus   1C :
 --------------

Diamagnetic contribution to the shielding tensor (ppm) : 
           251.519         -6.547       -18.206
             2.928        263.538         7.273
            23.215        -13.337       204.887

Paramagnetic contribution to the shielding tensor (ppm): 
          -185.055         22.678        80.071
            15.190       -274.872       -55.922
            38.769        -34.380       -67.912

Total shielding tensor (ppm): 
            66.465         16.131        61.865
            18.118        -11.335       -48.650
            61.984        -47.718       136.975


 Diagonalized sT*s matrix:
 
 sDSO           254.681          245.698          219.565  iso=     239.981
 sPSO          -292.626         -194.689          -40.524  iso=    -175.946
        ---------------  ---------------  ---------------
 Total          -37.945           51.010          179.041  iso=      64.035

 --------------
 Nucleus   2C :
 --------------

Diamagnetic contribution to the shielding tensor (ppm) : 
           185.464         45.340       -86.230
            22.127        233.844        36.308
           -99.836         77.490        68.270

Paramagnetic contribution to the shielding tensor (ppm): 
          -186.452        -53.596       179.811
           -30.437       -187.077       -59.909
           193.505       -100.928        60.023

Total shielding tensor (ppm): 
            -0.988         -8.256        93.582
            -8.310         46.767       -23.601
            93.669        -23.438       128.293


 Diagonalized sT*s matrix:
 
 sDSO           250.345          236.523            0.710  iso=     162.526
 sPSO          -207.949         -286.779          181.221  iso=    -104.502
        ---------------  ---------------  ---------------
 Total           42.397          -50.256          181.931  iso=      58.024

 --------------
 Nucleus   3C :
 --------------

Diamagnetic contribution to the shielding tensor (ppm) : 
           210.653         -8.703        -7.908
             9.421        264.309         8.299
           -57.593        -19.560       224.697

Paramagnetic contribution to the shielding tensor (ppm): 
          -160.216        -42.025        64.329
           -62.084       -269.484       -18.793
           113.953          8.000       -77.494

Total shielding tensor (ppm): 
            50.438        -50.728        56.421
           -52.663         -5.175       -10.494
            56.360        -11.560       147.203


 Diagonalized sT*s matrix:
 
 sDSO           254.540          246.381          198.739  iso=     233.220
 sPSO          -292.381         -194.989          -19.823  iso=    -169.064
        ---------------  ---------------  ---------------
 Total          -37.842           51.392          178.916  iso=      64.155

 --------------
 Nucleus   4C :
 --------------

Diamagnetic contribution to the shielding tensor (ppm) : 
           209.822         10.166       -77.862
            -0.284        236.241        36.361
           -89.000         30.342       107.916

Paramagnetic contribution to the shielding tensor (ppm): 
          -147.041          2.432       142.940
            -8.231       -241.881       -70.764
           149.402        -75.791        34.302

Total shielding tensor (ppm): 
            62.780         12.597        65.078
            -8.516         -5.640       -34.403
            60.402        -45.449       142.218


 Diagonalized sT*s matrix:
 
 sDSO           262.295          235.979           55.705  iso=     184.660
 sPSO          -270.189         -211.701          127.270  iso=    -118.207
        ---------------  ---------------  ---------------
 Total           -7.894           24.278          182.975  iso=      66.453

 --------------
 Nucleus   5C :
 --------------

Diamagnetic contribution to the shielding tensor (ppm) : 
           315.982        -45.933       261.607
           -46.828        261.814       -94.812
           266.618        -92.835       683.472

Paramagnetic contribution to the shielding tensor (ppm): 
          -313.547         42.414      -204.160
            43.398       -216.875        82.300
          -209.143         80.392      -601.854

Total shielding tensor (ppm): 
             2.436         -3.519        57.447
            -3.431         44.939       -12.512
            57.475        -12.444        81.617


 Diagonalized sT*s matrix:
 
 sDSO           177.907          242.972          840.389  iso=     420.423
 sPSO          -205.763         -200.249         -726.263  iso=    -377.425
        ---------------  ---------------  ---------------
 Total          -27.856           42.723          114.125  iso=      42.998

 --------------
 Nucleus   6H :
 --------------

Diamagnetic contribution to the shielding tensor (ppm) : 
            47.764         -5.693        11.820
             1.145         32.997        -8.679
            11.781         -4.135        66.148

Paramagnetic contribution to the shielding tensor (ppm): 
           -23.115          4.631       -14.663
            -1.581        -10.233         9.562
           -14.564          5.298       -44.858

Total shielding tensor (ppm): 
            24.650         -1.062        -2.843
            -0.437         22.765         0.883
            -2.783          1.163        21.290


 Diagonalized sT*s matrix:
 
 sDSO            73.015           33.262           40.633  iso=      48.970
 sPSO           -53.413          -10.758          -14.034  iso=     -26.068
        ---------------  ---------------  ---------------
 Total           19.602           22.504           26.599  iso=      22.901

 --------------
 Nucleus   7H :
 --------------

Diamagnetic contribution to the shielding tensor (ppm) : 
            45.964         -2.027        12.355
            -7.619         33.617        -3.759
             8.045         -9.407        64.630

Paramagnetic contribution to the shielding tensor (ppm): 
           -20.857          3.279       -14.917
             8.357        -10.974         3.989
           -10.774          9.217       -43.551

Total shielding tensor (ppm): 
            25.107          1.253        -2.562
             0.738         22.643         0.230
            -2.729         -0.190        21.079


 Diagonalized sT*s matrix:
 
 sDSO            70.653           33.137           40.421  iso=      48.070
 sPSO           -50.959          -10.618          -13.806  iso=     -25.127
        ---------------  ---------------  ---------------
 Total           19.694           22.520           26.616  iso=      22.943

 --------------
 Nucleus   8H :
 --------------

Diamagnetic contribution to the shielding tensor (ppm) : 
            21.659          1.541       -17.931
             5.779         39.444         8.259
           -30.267          3.983         2.770

Paramagnetic contribution to the shielding tensor (ppm): 
             3.181         -2.812        15.574
            -7.135        -15.098        -6.833
            27.994         -2.680        19.524

Total shielding tensor (ppm): 
            24.840         -1.271        -2.356
            -1.356         24.346         1.426
            -2.273          1.303        22.293


 Diagonalized sT*s matrix:
 
 sDSO           -13.750           38.876           38.747  iso=      21.291
 sPSO            34.586          -15.570          -11.409  iso=       2.536
        ---------------  ---------------  ---------------
 Total           20.836           23.306           27.337  iso=      23.827

 --------------
 Nucleus   9H :
 --------------

Diamagnetic contribution to the shielding tensor (ppm) : 
            -1.773         28.372       -70.233
            15.159         26.526        28.377
           -71.833         55.307      -100.540

Paramagnetic contribution to the shielding tensor (ppm): 
            24.172        -27.761        69.639
           -14.498          0.666       -27.449
            71.364        -54.521       121.970

Total shielding tensor (ppm): 
            22.400          0.611        -0.594
             0.661         27.193         0.928
            -0.469          0.786        21.430


 Diagonalized sT*s matrix:
 
 sDSO          -148.400           35.033           37.581  iso=     -25.262
 sPSO           169.419          -12.410          -10.201  iso=      48.936
        ---------------  ---------------  ---------------
 Total           21.019           22.624           27.380  iso=      23.674

 --------------
 Nucleus  10H :
 --------------

Diamagnetic contribution to the shielding tensor (ppm) : 
            26.755          8.831       -36.174
             5.591         36.870        14.019
           -21.021         14.406       -32.636

Paramagnetic contribution to the shielding tensor (ppm): 
            -1.218         -7.177        34.072
            -3.815        -12.782       -14.268
            18.946        -14.625        54.498

Total shielding tensor (ppm): 
            25.537          1.654        -2.102
             1.777         24.088        -0.250
            -2.074         -0.220        21.862


 Diagonalized sT*s matrix:
 
 sDSO           -46.480           38.386           39.084  iso=      10.330
 sPSO            67.310          -15.068          -11.745  iso=      13.499
        ---------------  ---------------  ---------------
 Total           20.830           23.318           27.339  iso=      23.829

 --------------
 Nucleus  11N :
 --------------

Diamagnetic contribution to the shielding tensor (ppm) : 
           484.073        -68.490       328.324
           -67.173        349.543      -129.064
           332.734       -132.724       947.063

Paramagnetic contribution to the shielding tensor (ppm): 
          -681.228         52.846      -197.804
            51.599       -510.799        91.263
          -202.189         94.863      -963.228

Total shielding tensor (ppm): 
          -197.155        -15.644       130.519
           -15.574       -161.255       -37.802
           130.545        -37.860       -16.165


 Diagonalized sT*s matrix:
 
 sDSO          1146.376          322.273          312.030  iso=     593.560
 sPSO         -1086.684         -490.908         -577.662  iso=    -718.418
        ---------------  ---------------  ---------------
 Total           59.692         -168.635         -265.633  iso=    -124.858

 --------------
 Nucleus  12O :
 --------------

Diamagnetic contribution to the shielding tensor (ppm) : 
           369.397        -17.224       -30.193
             3.642        411.334        18.389
           -24.211         35.414       337.354

Paramagnetic contribution to the shielding tensor (ppm): 
          -679.887         80.745       294.246
          -120.324      -1002.221      -115.621
           250.779       -226.515      -324.051

Total shielding tensor (ppm): 
          -310.489         63.522       264.053
          -116.682       -590.888       -97.232
           226.569       -191.101        13.304


 Diagonalized sT*s matrix:
 
 sDSO           317.456          380.413          420.217  iso=     372.695
 sPSO          -146.461         -814.252        -1045.446  iso=    -668.720
        ---------------  ---------------  ---------------
 Total          170.995         -433.839         -625.229  iso=    -296.024

 --------------
 Nucleus  13O :
 --------------

Diamagnetic contribution to the shielding tensor (ppm) : 
           370.131         44.296       -29.145
            16.936        406.954        13.645
           -39.138         15.081       319.569

Paramagnetic contribution to the shielding tensor (ppm): 
          -701.360       -249.233       250.494
           -40.943       -990.967      -158.615
           298.052        -66.288      -289.079

Total shielding tensor (ppm): 
          -331.229       -204.936       221.349
           -24.006       -584.012      -144.970
           258.914        -51.207        30.490


 Diagonalized sT*s matrix:
 
 sDSO           296.246          379.976          420.432  iso=     365.551
 sPSO          -120.430         -814.158        -1046.817  iso=    -660.468
        ---------------  ---------------  ---------------
 Total          175.816         -434.182         -626.385  iso=    -294.917



--------------------------
CHEMICAL SHIELDING SUMMARY (ppm)
--------------------------


  Nucleus  Element    Isotropic     Anisotropy
  -------  -------  ------------   ------------
      0       C           66.758        174.822 
      1       C           64.035        172.509 
      2       C           58.024        185.861 
      3       C           64.155        172.140 
      4       C           66.453        174.784 
      5       C           42.998        106.692 
      6       H           22.901          5.546 
      7       H           22.943          5.509 
      8       H           23.827          5.266 
      9       H           23.674          5.558 
     10       H           23.829          5.265 
     11       N         -124.858       -211.161 
     12       O         -296.024       -493.807 
     13       O         -294.917       -497.202 



Timings for individual modules:

Sum of individual times         ...      889.597 sec (=  14.827 min)
GTO integral calculation        ...        0.389 sec (=   0.006 min)   0.0 %
SCF iterations                  ...      360.461 sec (=   6.008 min)  40.5 %
SCF-level EPR/NMR calculation   ...      528.748 sec (=   8.812 min)  59.4 %
                             ****ORCA TERMINATED NORMALLY****
TOTAL RUN TIME: 0 days 0 hours 14 minutes 49 seconds 722 msec
