7
	Energy:       5.5774828
C         -6.34434        1.09748       -0.00275
C         -5.01502        1.95845        0.01702
H         -7.09853        1.54307        0.65904
H         -6.26469        0.05263        0.33966
H         -6.80668        1.03440       -0.99780
O         -4.98179        3.17946        0.00329
H         -4.02678        1.43076       -0.01846


