
                                 *****************
                                 * O   R   C   A *
                                 *****************

           --- An Ab Initio, DFT and Semiempirical electronic structure package ---

                  #######################################################
                  #                        -***-                        #
                  #  Department of molecular theory and spectroscopy    #
                  #              Directorship: Frank Neese              #
                  # Max Planck Institute for Chemical Energy Conversion #
                  #                  D-45470 Muelheim/Ruhr              #
                  #                       Germany                       #
                  #                                                     #
                  #                  All rights reserved                #
                  #                        -***-                        #
                  #######################################################


                         Program Version 4.0.0.2 - RELEASE -


 With contributions from (in alphabetic order):
   Daniel Aravena         : Magnetic Properties
   Michael Atanasov       : Ab Initio Ligand Field Theory
   Ute Becker             : Parallelization
   Martin Brehm           : Molecular dynamics
   Dmytro Bykov           : SCF Hessian
   Vijay G. Chilkuri      : MRCI spin determinant printing
   Dipayan Datta          : RHF DLPNO-CCSD density
   Achintya Kumar Dutta   : EOM-CC, STEOM-CC
   Dmitry Ganyushin       : Spin-Orbit,Spin-Spin,Magnetic field MRCI
   Yang Guo               : DLPNO-NEVPT2, CIM, IAO-localization
   Andreas Hansen         : Spin unrestricted coupled pair/coupled cluster methods
   Lee Huntington         : MR-EOM, pCC
   Robert Izsak           : Overlap fitted RIJCOSX, COSX-SCS-MP3, EOM
   Christian Kollmar      : KDIIS, OOCD, Brueckner-CCSD(T), CCSD density
   Simone Kossmann        : Meta GGA functionals, TD-DFT gradient, OOMP2, MP2 Hessian
   Martin Krupicka        : AUTO-CI
   Dagmar Lenk            : GEPOL surface
   Dimitrios Liakos       : Extrapolation schemes; parallel MDCI
   Dimitrios Manganas     : ROCIS; embedding schemes
   Dimitrios Pantazis     : SARC Basis sets
   Taras Petrenko         : DFT Hessian,TD-DFT gradient, ASA, ECA, R-Raman, ABS, FL, XAS/XES, NRVS
   Peter Pinski           : DLPNO-MP2
   Christoph Reimann      : Effective Core Potentials
   Marius Retegan         : Local ZFS, SOC
   Christoph Riplinger    : Optimizer, TS searches, QM/MM, DLPNO-CCSD(T), (RO)-DLPNO pert. Triples
   Tobias Risthaus        : Range-separated hybrids, TD-DFT gradient, RPA, STAB
   Michael Roemelt        : Restricted open shell CIS
   Masaaki Saitow         : Open-shell DLPNO
   Barbara Sandhoefer     : DKH picture change effects
   Kantharuban Sivalingam : CASSCF convergence, NEVPT2, FIC-MRCI
   Georgi Stoychev        : AutoAux
   Boris Wezisla          : Elementary symmetry handling
   Frank Wennmohs         : Technical directorship


 We gratefully acknowledge several colleagues who have allowed us to
 interface, adapt or use parts of their codes:
   Stefan Grimme, W. Hujo, H. Kruse,             : VdW corrections, initial TS optimization,
                  C. Bannwarth                     DFT functionals, gCP, sTDA/sTD-DF
   Ed Valeev                                     : LibInt (2-el integral package), F12 methods
   Garnet Chan, S. Sharma, J. Yang, R. Olivares  : DMRG
   Ulf Ekstrom                                   : XCFun DFT Library
   Mihaly Kallay                                 : mrcc  (arbitrary order and MRCC methods)
   Jiri Pittner, Ondrej Demel                    : Mk-CCSD
   Frank Weinhold                                : gennbo (NPA and NBO analysis)
   Christopher J. Cramer and Donald G. Truhlar   : smd solvation model


 Your calculation uses the libint2 library for the computation of 2-el integrals
 For citations please refer to: http://libint.valeyev.net

 This ORCA versions uses:
   CBLAS   interface :  Fast vector & matrix operations
   LAPACKE interface :  Fast linear algebra routines
   SCALAPACK package :  Parallel linear algebra routines




*****************************************
The coordinations will be read from file: guess.xyz
*****************************************



Information: The global flag for chemical shieldings has been found
             ==>> will calculate the chemical shifts for all atoms in the system

Your calculation utilizes the basis: cc-pVDZ 
       H, B-Ne : Obtained from the ccRepo (grant-hill.group.shef.ac.uk/ccrepo) Feb. 2017
                 T. H. Dunning, Jr., J. Chem. Phys. 90, 1007 (1989)
            He : Obtained from the ccRepo (grant-hill.group.shef.ac.uk/ccrepo) Feb. 2017
                 D. E. Woon, T. H. Dunning, Jr., J. Chem. Phys. 100, 2975 (1994)
  Li-Be, Na-Mg : Obtained from the ccRepo (grant-hill.group.shef.ac.uk/ccrepo) Feb. 2017
                 B. P. Prascher, D. E. Woon, K. A. Peterson, T. H. Dunning, Jr., A. K. Wilson, Theor. Chem. Acc. 128, 69 (2011)
         Al-Ar : Obtained from the ccRepo (grant-hill.group.shef.ac.uk/ccrepo) Feb. 2017
                 D. E. Woon, T. H. Dunning, Jr., J. Chem. Phys. 98, 1358 (1993)
            Ca : Obtained from the Peterson Research Group Website (tyr0.chem.wsu.edu/~kipeters) Feb. 2017
                 J. Koput, K. A. Peterson, J. Phys. Chem. 106, 9595 (2002)
         Sc-Zn : Obtained from the ccRepo (grant-hill.group.shef.ac.uk/ccrepo) Feb. 2017
                 N. B. Balabanov, K. A. Peterson, J. Chem. Phys. 123, 064107 (2005)
                 N. B. Balabanov, K. A. Peterson, J. Chem. Phys. 125, 074110 (2006)
         Ga-Kr : Obtained from the ccRepo (grant-hill.group.shef.ac.uk/ccrepo) Feb. 2017
                 A. K. Wilson, D. E. Woon, K. A. Peterson, T. H. Dunning, Jr., J. Chem. Phys. 110, 7667 (1999)

Your calculation utilizes the auxiliary basis: def2/J
   F. Weigend, Phys. Chem. Chem. Phys. 8, 1057 (2006).

================================================================================
                                        WARNINGS
                       Please study these warnings very carefully!
================================================================================

Warning: TCutStore was < 0. Adjusted to Thresh (uncritical)

INFO   : the flag for use of LIBINT has been found!

CheckInput: checking for shifts: .
================================================================================
                                       INPUT FILE
================================================================================
NAME = /home/jan/SoftwareDevelopment/karminus/output/olyp_ccpvdz/acrylaldehyde/acrylaldehyde.in
|  1> !cc-pvdz OLYP NMR
|  2> 
|  3> *xyzfile 0 1 guess.xyz
|  4> 
|  5> 
|  6>                          ****END OF INPUT****
================================================================================

                       ****************************
                       * Single Point Calculation *
                       ****************************

---------------------------------
CARTESIAN COORDINATES (ANGSTROEM)
---------------------------------
  C     -7.070220    2.323870    5.350750
  C     -6.431590    3.497590    5.404230
  H     -6.746610    1.511210    4.707880
  H     -7.950120    2.152030    5.963880
  C     -5.234810    3.745660    4.576600
  H     -6.754480    4.309740    6.044950
  O     -4.648060    4.819660    4.612450
  H     -4.904490    2.915020    3.931130

----------------------------
CARTESIAN COORDINATES (A.U.)
----------------------------
  NO LB      ZA    FRAG     MASS         X           Y           Z
   0 C     6.0000    0    12.011  -13.360780    4.391478   10.111452
   1 C     6.0000    0    12.011  -12.153944    6.609487   10.212515
   2 H     1.0000    0     1.008  -12.749245    2.855773    8.896604
   3 H     1.0000    0     1.008  -15.023550    4.066747   11.270100
   4 C     6.0000    0    12.011   -9.892357    7.078272    8.648521
   5 H     1.0000    0     1.008  -12.764117    8.144228   11.423300
   6 O     8.0000    0    15.999   -8.783560    9.107837    8.716267
   7 H     1.0000    0     1.008   -9.268143    5.508589    7.428759

--------------------------------
INTERNAL COORDINATES (ANGSTROEM)
--------------------------------
 C      0   0   0     0.000000000000     0.00000000     0.00000000
 C      1   0   0     1.337283450021     0.00000000     0.00000000
 H      1   2   0     1.085551263000   122.57287406     0.00000000
 H      1   2   3     1.086131388231   120.20973392   180.05345385
 C      2   1   3     1.476073341742   120.81577219   359.96346816
 H      2   1   3     1.083682468715   122.62410606   179.93830631
 O      5   2   1     1.224351577367   121.30279653   179.54875528
 H      5   2   1     1.102590419376   116.39324642   359.55403244

---------------------------
INTERNAL COORDINATES (A.U.)
---------------------------
 C      0   0   0     0.000000000000     0.00000000     0.00000000
 C      1   0   0     2.527099483965     0.00000000     0.00000000
 H      1   2   0     2.051394591402   122.57287406     0.00000000
 H      1   2   3     2.052490869212   120.20973392   180.05345385
 C      2   1   3     2.789374369473   120.81577219   359.96346816
 H      2   1   3     2.047863082003   122.62410606   179.93830631
 O      5   2   1     2.313689172857   121.30279653   179.54875528
 H      5   2   1     2.083593930506   116.39324642   359.55403244

---------------------
BASIS SET INFORMATION
---------------------
There are 3 groups of distinct atoms

 Group   1 Type C   : 17s4p1d contracted to 3s2p1d pattern {881/31/1}
 Group   2 Type H   : 4s1p contracted to 2s1p pattern {31/1}
 Group   3 Type O   : 17s4p1d contracted to 3s2p1d pattern {881/31/1}

Atom   0C    basis set group =>   1
Atom   1C    basis set group =>   1
Atom   2H    basis set group =>   2
Atom   3H    basis set group =>   2
Atom   4C    basis set group =>   1
Atom   5H    basis set group =>   2
Atom   6O    basis set group =>   3
Atom   7H    basis set group =>   2
-------------------------------
AUXILIARY BASIS SET INFORMATION
-------------------------------
There are 3 groups of distinct atoms

 Group   1 Type C   : 12s5p4d2f1g contracted to 6s4p3d1f1g pattern {711111/2111/211/2/1}
 Group   2 Type H   : 5s2p1d contracted to 3s1p1d pattern {311/2/1}
 Group   3 Type O   : 12s5p4d2f1g contracted to 6s4p3d1f1g pattern {711111/2111/211/2/1}

Atom   0C    basis set group =>   1
Atom   1C    basis set group =>   1
Atom   2H    basis set group =>   2
Atom   3H    basis set group =>   2
Atom   4C    basis set group =>   1
Atom   5H    basis set group =>   2
Atom   6O    basis set group =>   3
Atom   7H    basis set group =>   2
------------------------------------------------------------------------------
                           ORCA GTO INTEGRAL CALCULATION
                           -- RI-GTO INTEGRALS CHOSEN --
------------------------------------------------------------------------------

                         BASIS SET STATISTICS AND STARTUP INFO

Gaussian basis set:
 # of primitive gaussian shells          ...  108
 # of primitive gaussian functions       ...  164
 # of contracted shells                  ...   36
 # of contracted basis functions         ...   76
 Highest angular momentum                ...    2
 Maximum contraction depth               ...    8
Auxiliary gaussian basis set:
 # of primitive gaussian shells          ...  128
 # of primitive gaussian functions       ...  344
 # of contracted shells                  ...   80
 # of contracted aux-basis functions     ...  240
 Highest angular momentum                ...    4
 Maximum contraction depth               ...    7
Ratio of auxiliary to basis functions    ...  3.16
Integral package used                  ... LIBINT
 One Electron integrals                  ... done
 Ordering auxiliary basis shells         ... done
 Integral threshhold             Thresh  ...  1.000e-10
 Primitive cut-off               TCut    ...  1.000e-11
 Pre-screening matrix                    ... done
 Shell pair data                         ... 
 Ordering of the shell pairs             ... done (   0.000 sec) 664 of 666 pairs
 Determination of significant pairs      ... done (   0.000 sec)
 Creation of shell pair data             ... done (   0.001 sec)
 Storage of shell pair data              ... done (   0.000 sec)
 Shell pair data done in (   0.001 sec)
 Computing two index integrals           ... done
 Cholesky decomposition of the V-matrix  ... done


Timings:
 Total evaluation time                   ...   0.124 sec (  0.002 min)
 One electron matrix time                ...   0.006 sec (  0.000 min) =  4.6%
 Schwartz matrix evaluation time         ...   0.099 sec (  0.002 min) = 79.6%
 Two index repulsion integral time       ...   0.002 sec (  0.000 min) =  1.5%
 Cholesky decomposition of V             ...   0.001 sec (  0.000 min) =  0.7%
 Three index repulsion integral time     ...   0.000 sec (  0.000 min) =  0.0%

-------------------------------------------------------------------------------
                                 ORCA SCF
-------------------------------------------------------------------------------

------------
SCF SETTINGS
------------
Hamiltonian:
 Density Functional     Method          .... DFT(GTOs)
 Exchange Functional    Exchange        .... OPTX
 Correlation Functional Correlation     .... LYP
 Gradients option       PostSCFGGA      .... off
 RI-approximation to the Coulomb term is turned on
   Number of auxiliary basis functions  .... 240


General Settings:
 Integral files         IntName         .... /home/jan/SoftwareDevelopment/karminus/output/olyp_ccpvdz/acrylaldehyde/acrylaldehyde
 Hartree-Fock type      HFTyp           .... RHF
 Total Charge           Charge          ....    0
 Multiplicity           Mult            ....    1
 Number of Electrons    NEL             ....   30
 Basis Dimension        Dim             ....   76
 Nuclear Repulsion      ENuc            ....    102.8749030980 Eh

Convergence Acceleration:
 DIIS                   CNVDIIS         .... on
   Start iteration      DIISMaxIt       ....    12
   Startup error        DIISStart       ....  0.200000
   # of expansion vecs  DIISMaxEq       ....     5
   Bias factor          DIISBfac        ....   1.050
   Max. coefficient     DIISMaxC        ....  10.000
 Newton-Raphson         CNVNR           .... off
 SOSCF                  CNVSOSCF        .... on
   Start iteration      SOSCFMaxIt      ....   150
   Startup grad/error   SOSCFStart      ....  0.003300
 Level Shifting         CNVShift        .... on
   Level shift para.    LevelShift      ....    0.2500
   Turn off err/grad.   ShiftErr        ....    0.0010
 Zerner damping         CNVZerner       .... off
 Static damping         CNVDamp         .... on
   Fraction old density DampFac         ....    0.7000
   Max. Damping (<1)    DampMax         ....    0.9800
   Min. Damping (>=0)   DampMin         ....    0.0000
   Turn off err/grad.   DampErr         ....    0.1000
 Fernandez-Rico         CNVRico         .... off

SCF Procedure:
 Maximum # iterations   MaxIter         ....   125
 SCF integral mode      SCFMode         .... Direct
   Integral package                     .... LIBINT
 Reset frequeny         DirectResetFreq ....    20
 Integral Threshold     Thresh          ....  1.000e-10 Eh
 Primitive CutOff       TCut            ....  1.000e-11 Eh

Convergence Tolerance:
 Convergence Check Mode ConvCheckMode   .... Total+1el-Energy
 Convergence forced     ConvForced      .... 0
 Energy Change          TolE            ....  1.000e-06 Eh
 1-El. energy change                    ....  1.000e-03 Eh
 Orbital Gradient       TolG            ....  5.000e-05
 Orbital Rotation angle TolX            ....  5.000e-05
 DIIS Error             TolErr          ....  1.000e-06


Diagonalization of the overlap matrix:
Smallest eigenvalue                        ... 2.975e-03
Time for diagonalization                   ...    0.001 sec
Threshold for overlap eigenvalues          ... 1.000e-08
Number of eigenvalues below threshold      ... 0
Time for construction of square roots      ...    0.000 sec
Total time needed                          ...    0.001 sec

-------------------
DFT GRID GENERATION
-------------------

General Integration Accuracy     IntAcc      ...  4.340
Radial Grid Type                 RadialGrid  ... Gauss-Chebyshev
Angular Grid (max. acc.)         AngularGrid ... Lebedev-110
Angular grid pruning method      GridPruning ... 3 (G Style)
Weight generation scheme         WeightScheme... Becke
Basis function cutoff            BFCut       ...    1.0000e-10
Integration weight cutoff        WCut        ...    1.0000e-14
Grids for H and He will be reduced by one unit

# of grid points (after initial pruning)     ...   9860 (   0.0 sec)
# of grid points (after weights+screening)   ...   9539 (   0.0 sec)
nearest neighbour list constructed           ...    0.0 sec
Grid point re-assignment to atoms done       ...    0.0 sec
Grid point division into batches done        ...    0.0 sec
Reduced shell lists constructed in    0.1 sec

Total number of grid points                  ...     9539
Total number of batches                      ...      152
Average number of points per batch           ...       62
Average number of grid points per atom       ...     1192
Average number of shells per batch           ...    30.69 (85.26%)
Average number of basis functions per batch  ...    63.83 (83.99%)
Average number of large shells per batch     ...    25.96 (84.58%)
Average number of large basis fcns per batch ...    53.90 (84.44%)
Maximum spatial batch extension              ...  21.64, 18.99, 25.60 au
Average spatial batch extension              ...   4.81,  4.46,  5.08 au

Time for grid setup =    0.131 sec

------------------------------
INITIAL GUESS: MODEL POTENTIAL
------------------------------
Loading Hartree-Fock densities                     ... done
Calculating cut-offs                               ... done
Setting up the integral package                    ... done
Initializing the effective Hamiltonian             ... done
Starting the Coulomb interaction                   ... done (   0.1 sec)
Reading the grid                                   ... done
Mapping shells                                     ... done
Starting the XC term evaluation                    ... done (   0.1 sec)
  promolecular density results
     # of electrons  =     29.997855621
     EX              =    -24.716826706
     EC              =     -0.995892628
     EX+EC           =    -25.712719334
Transforming the Hamiltonian                       ... done (   0.0 sec)
Diagonalizing the Hamiltonian                      ... done (   0.0 sec)
Back transforming the eigenvectors                 ... done (   0.0 sec)
Now organizing SCF variables                       ... done
                      ------------------
                      INITIAL GUESS DONE (   0.4 sec)
                      ------------------
--------------
SCF ITERATIONS
--------------
ITER       Energy         Delta-E        Max-DP      RMS-DP      [F,P]     Damp
               ***  Starting incremental Fock matrix formation  ***
  0   -191.7505511518   0.000000000000 0.12828054  0.00474037  0.2327636 0.7000
  1   -191.8095885110  -0.059037359216 0.06763081  0.00288995  0.0654721 0.7000
                               ***Turning on DIIS***
  2   -191.8251664720  -0.015577961071 0.05229163  0.00367314  0.0238177 0.0000
  3   -191.8585060055  -0.033339533506 0.04977250  0.00217790  0.0297187 0.0000
  4   -191.8631752273  -0.004669221767 0.01371302  0.00066047  0.0277488 0.0000
  5   -191.8647819304  -0.001606703103 0.00455643  0.00024198  0.0049251 0.0000
                      *** Initiating the SOSCF procedure ***
                           *** Shutting down DIIS ***
                      *** Re-Reading the Fockian *** 
                      *** Removing any level shift *** 
ITER      Energy       Delta-E        Grad      Rot      Max-DP    RMS-DP
  6   -191.86486133  -0.0000793947  0.000483  0.000483  0.001433  0.000090
               *** Restarting incremental Fock matrix formation ***
  7   -191.86486984  -0.0000085159  0.000235  0.001413  0.000903  0.000052
  8   -191.86486722   0.0000026197  0.000731  0.001172  0.000699  0.000033
  9   -191.86487048  -0.0000032605  0.000061  0.000234  0.000455  0.000018
                 **** Energy Check signals convergence ****
              ***Rediagonalizing the Fockian in SOSCF/NRSCF***

               *****************************************************
               *                     SUCCESS                       *
               *           SCF CONVERGED AFTER  10 CYCLES          *
               *****************************************************

Setting up the final grid:

General Integration Accuracy     IntAcc      ...  4.670
Radial Grid Type                 RadialGrid  ... Gauss-Chebyshev
Angular Grid (max. acc.)         AngularGrid ... Lebedev-302
Angular grid pruning method      GridPruning ... 3 (G Style)
Weight generation scheme         WeightScheme... Becke
Basis function cutoff            BFCut       ...    1.0000e-10
Integration weight cutoff        WCut        ...    1.0000e-14
Grids for H and He will be reduced by one unit

# of grid points (after initial pruning)     ...  38424 (   0.0 sec)
# of grid points (after weights+screening)   ...  36828 (   0.0 sec)
nearest neighbour list constructed           ...    0.0 sec
Grid point re-assignment to atoms done       ...    0.0 sec
Grid point division into batches done        ...    0.1 sec
Reduced shell lists constructed in    0.6 sec

Total number of grid points                  ...    36828
Total number of batches                      ...      580
Average number of points per batch           ...       63
Average number of grid points per atom       ...     4604
Average number of shells per batch           ...    28.21 (78.35%)
Average number of basis functions per batch  ...    58.49 (76.96%)
Average number of large shells per batch     ...    23.20 (82.25%)
Average number of large basis fcns per batch ...    48.23 (82.45%)
Maximum spatial batch extension              ...  18.95, 18.56, 21.68 au
Average spatial batch extension              ...   3.14,  2.97,  3.19 au

Final grid set up in    0.6 sec
Final integration                            ... done (   0.5 sec)
Change in XC energy                          ...     0.000222550
Integrated number of electrons               ...    30.000037357
Previous integrated no of electrons          ...    30.000377814

----------------
TOTAL SCF ENERGY
----------------

Total Energy       :         -191.86464764 Eh           -5220.90249 eV

Components:
Nuclear Repulsion  :          102.87490310 Eh            2799.36843 eV
Electronic Energy  :         -294.73955074 Eh           -8020.27092 eV
One Electron Energy:         -463.09939993 Eh          -12601.57532 eV
Two Electron Energy:          168.35984919 Eh            4581.30441 eV

Virial components:
Potential Energy   :         -382.65438278 Eh          -10412.55512 eV
Kinetic Energy     :          190.78973514 Eh            5191.65263 eV
Virial Ratio       :            2.00563402


DFT components:
N(Alpha)           :       15.000018678655 electrons
N(Beta)            :       15.000018678655 electrons
N(Total)           :       30.000037357311 electrons
E(X)               :      -25.259860006869 Eh       
E(C)               :       -1.003748868244 Eh       
E(XC)              :      -26.263608875113 Eh       

---------------
SCF CONVERGENCE
---------------

  Last Energy change         ...    2.9221e-07  Tolerance :   1.0000e-06
  Last MAX-Density change    ...    3.0692e-04  Tolerance :   1.0000e-05
  Last RMS-Density change    ...    1.1579e-05  Tolerance :   1.0000e-06
  Last Orbital Gradient      ...    2.1509e-04  Tolerance :   5.0000e-05
  Last Orbital Rotation      ...    2.2648e-04  Tolerance :   5.0000e-05

             **** THE GBW FILE WAS UPDATED (/home/jan/SoftwareDevelopment/karminus/output/olyp_ccpvdz/acrylaldehyde/acrylaldehyde.gbw) ****
             **** DENSITY FILE WAS UPDATED (/home/jan/SoftwareDevelopment/karminus/output/olyp_ccpvdz/acrylaldehyde/acrylaldehyde.scfp.tmp) ****
             **** ENERGY FILE WAS UPDATED (/home/jan/SoftwareDevelopment/karminus/output/olyp_ccpvdz/acrylaldehyde/acrylaldehyde.en.tmp) ****
----------------
ORBITAL ENERGIES
----------------

  NO   OCC          E(Eh)            E(eV) 
   0   2.0000     -18.766522      -510.6630 
   1   2.0000      -9.994413      -271.9618 
   2   2.0000      -9.943496      -270.5763 
   3   2.0000      -9.932854      -270.2867 
   4   2.0000      -0.952492       -25.9186 
   5   2.0000      -0.730645       -19.8819 
   6   2.0000      -0.584027       -15.8922 
   7   2.0000      -0.514467       -13.9994 
   8   2.0000      -0.423139       -11.5142 
   9   2.0000      -0.415916       -11.3176 
  10   2.0000      -0.359926        -9.7941 
  11   2.0000      -0.350192        -9.5292 
  12   2.0000      -0.342748        -9.3267 
  13   2.0000      -0.258519        -7.0347 
  14   2.0000      -0.201804        -5.4914 
  15   0.0000      -0.092031        -2.5043 
  16   0.0000       0.017314         0.4711 
  17   0.0000       0.050708         1.3798 
  18   0.0000       0.055023         1.4972 
  19   0.0000       0.097993         2.6665 
  20   0.0000       0.118748         3.2313 
  21   0.0000       0.215084         5.8527 
  22   0.0000       0.256265         6.9733 
  23   0.0000       0.290680         7.9098 
  24   0.0000       0.416264        11.3271 
  25   0.0000       0.422879        11.5071 
  26   0.0000       0.427314        11.6278 
  27   0.0000       0.443872        12.0784 
  28   0.0000       0.494482        13.4555 
  29   0.0000       0.508049        13.8247 
  30   0.0000       0.539461        14.6795 
  31   0.0000       0.555828        15.1249 
  32   0.0000       0.609385        16.5822 
  33   0.0000       0.630943        17.1688 
  34   0.0000       0.655135        17.8271 
  35   0.0000       0.707791        19.2600 
  36   0.0000       0.748292        20.3621 
  37   0.0000       0.833113        22.6702 
  38   0.0000       0.867672        23.6106 
  39   0.0000       0.875170        23.8146 
  40   0.0000       0.937783        25.5184 
  41   0.0000       0.957706        26.0605 
  42   0.0000       0.980724        26.6869 
  43   0.0000       0.986925        26.8556 
  44   0.0000       1.053857        28.6769 
  45   0.0000       1.101110        29.9627 
  46   0.0000       1.122684        30.5498 
  47   0.0000       1.280058        34.8321 
  48   0.0000       1.382485        37.6193 
  49   0.0000       1.407980        38.3131 
  50   0.0000       1.428653        38.8756 
  51   0.0000       1.464549        39.8524 
  52   0.0000       1.515032        41.2261 
  53   0.0000       1.544008        42.0146 
  54   0.0000       1.548267        42.1305 
  55   0.0000       1.601496        43.5789 
  56   0.0000       1.602153        43.5968 
  57   0.0000       1.671131        45.4738 
  58   0.0000       1.717399        46.7328 
  59   0.0000       1.815310        49.3971 
  60   0.0000       1.885068        51.2953 
  61   0.0000       1.914581        52.0984 
  62   0.0000       1.964261        53.4503 
  63   0.0000       2.022276        55.0289 
  64   0.0000       2.126042        57.8525 
  65   0.0000       2.175920        59.2098 
  66   0.0000       2.224705        60.5373 
  67   0.0000       2.381699        64.8093 
  68   0.0000       2.438751        66.3618 
  69   0.0000       2.588597        70.4393 
  70   0.0000       2.621932        71.3464 
  71   0.0000       2.665825        72.5408 
  72   0.0000       2.947913        80.2168 
  73   0.0000       3.001117        81.6646 
  74   0.0000       3.307526        90.0024 
  75   0.0000       3.344139        90.9987 

                    ********************************
                    * MULLIKEN POPULATION ANALYSIS *
                    ********************************

-----------------------
MULLIKEN ATOMIC CHARGES
-----------------------
   0 C :    0.113361
   1 C :   -0.071189
   2 H :    0.009634
   3 H :    0.014127
   4 C :    0.209835
   5 H :   -0.025082
   6 O :   -0.205367
   7 H :   -0.045319
Sum of atomic charges:   -0.0000000

--------------------------------
MULLIKEN REDUCED ORBITAL CHARGES
--------------------------------
  0 C s       :     3.069764  s :     3.069764
      pz      :     0.903683  p :     2.777438
      px      :     0.915435
      py      :     0.958320
      dz2     :     0.002009  d :     0.039436
      dxz     :     0.003116
      dyz     :     0.011774
      dx2y2   :     0.013160
      dxy     :     0.009377
  1 C s       :     3.224218  s :     3.224218
      pz      :     0.938021  p :     2.788860
      px      :     0.938609
      py      :     0.912230
      dz2     :     0.005527  d :     0.058111
      dxz     :     0.009226
      dyz     :     0.013524
      dx2y2   :     0.016126
      dxy     :     0.013708
  2 H s       :     0.957177  s :     0.957177
      pz      :     0.011438  p :     0.033189
      px      :     0.007363
      py      :     0.014388
  3 H s       :     0.952809  s :     0.952809
      pz      :     0.010967  p :     0.033064
      px      :     0.015963
      py      :     0.006134
  4 C s       :     3.109237  s :     3.109237
      pz      :     0.849508  p :     2.536064
      px      :     0.852345
      py      :     0.834211
      dz2     :     0.011194  d :     0.144864
      dxz     :     0.015427
      dyz     :     0.038579
      dx2y2   :     0.044698
      dxy     :     0.034967
  5 H s       :     0.993066  s :     0.993066
      pz      :     0.011168  p :     0.032016
      px      :     0.006548
      py      :     0.014300
  6 O s       :     3.780610  s :     3.780610
      pz      :     1.499222  p :     4.407319
      px      :     1.519248
      py      :     1.388849
      dz2     :     0.002006  d :     0.017438
      dxz     :     0.001149
      dyz     :     0.003645
      dx2y2   :     0.005049
      dxy     :     0.005588
  7 H s       :     1.015675  s :     1.015675
      pz      :     0.010338  p :     0.029644
      px      :     0.005838
      py      :     0.013467


                     *******************************
                     * LOEWDIN POPULATION ANALYSIS *
                     *******************************

----------------------
LOEWDIN ATOMIC CHARGES
----------------------
   0 C :    0.019374
   1 C :   -0.049152
   2 H :    0.023887
   3 H :    0.027187
   4 C :   -0.034937
   5 H :    0.027471
   6 O :   -0.001063
   7 H :   -0.012766

-------------------------------
LOEWDIN REDUCED ORBITAL CHARGES
-------------------------------
  0 C s       :     2.854652  s :     2.854652
      pz      :     0.950344  p :     2.981882
      px      :     0.986277
      py      :     1.045261
      dz2     :     0.009327  d :     0.144092
      dxz     :     0.018047
      dyz     :     0.037201
      dx2y2   :     0.042980
      dxy     :     0.036537
  1 C s       :     2.856812  s :     2.856812
      pz      :     0.965413  p :     3.003683
      px      :     0.995147
      py      :     1.043123
      dz2     :     0.017936  d :     0.188658
      dxz     :     0.029688
      dyz     :     0.041811
      dx2y2   :     0.051738
      dxy     :     0.047484
  2 H s       :     0.890659  s :     0.890659
      pz      :     0.029982  p :     0.085454
      px      :     0.020617
      py      :     0.034855
  3 H s       :     0.888292  s :     0.888292
      pz      :     0.028388  p :     0.084521
      px      :     0.039372
      py      :     0.016761
  4 C s       :     2.876544  s :     2.876544
      pz      :     0.888497  p :     2.781366
      px      :     0.927663
      py      :     0.965205
      dz2     :     0.030295  d :     0.377027
      dxz     :     0.041445
      dyz     :     0.095685
      dx2y2   :     0.117729
      dxy     :     0.091873
  5 H s       :     0.888424  s :     0.888424
      pz      :     0.029425  p :     0.084105
      px      :     0.019260
      py      :     0.035420
  6 O s       :     3.515093  s :     3.515093
      pz      :     1.471441  p :     4.455511
      px      :     1.513791
      py      :     1.470279
      dz2     :     0.004236  d :     0.030460
      dxz     :     0.001573
      dyz     :     0.005180
      dx2y2   :     0.008470
      dxy     :     0.011001
  7 H s       :     0.932275  s :     0.932275
      pz      :     0.027769  p :     0.080491
      px      :     0.016005
      py      :     0.036718


                      *****************************
                      * MAYER POPULATION ANALYSIS *
                      *****************************

  NA   - Mulliken gross atomic population
  ZA   - Total nuclear charge
  QA   - Mulliken gross atomic charge
  VA   - Mayer's total valence
  BVA  - Mayer's bonded valence
  FA   - Mayer's free valence

  ATOM       NA         ZA         QA         VA         BVA        FA
  0 C      5.8866     6.0000     0.1134     3.8994     3.8994    -0.0000
  1 C      6.0712     6.0000    -0.0712     4.0335     4.0335     0.0000
  2 H      0.9904     1.0000     0.0096     0.9810     0.9810    -0.0000
  3 H      0.9859     1.0000     0.0141     0.9679     0.9679    -0.0000
  4 C      5.7902     6.0000     0.2098     4.1562     4.1562    -0.0000
  5 H      1.0251     1.0000    -0.0251     0.9973     0.9973     0.0000
  6 O      8.2054     8.0000    -0.2054     2.3113     2.3113     0.0000
  7 H      1.0453     1.0000    -0.0453     0.9700     0.9700    -0.0000

  Mayer bond orders larger than 0.1
B(  0-C ,  1-C ) :   1.9072 B(  0-C ,  2-H ) :   0.9332 B(  0-C ,  3-H ) :   0.9345 
B(  0-C ,  6-O ) :   0.1090 B(  1-C ,  4-C ) :   1.0967 B(  1-C ,  5-H ) :   0.9467 
B(  4-C ,  6-O ) :   2.1136 B(  4-C ,  7-H ) :   0.9096 

-------
TIMINGS
-------

Total SCF time: 0 days 0 hours 0 min 4 sec 

Total time                  ....       4.715 sec
Sum of individual times     ....       4.706 sec  ( 99.8%)

Fock matrix formation       ....       3.710 sec  ( 78.7%)
  Split-RI-J                ....       1.778 sec  ( 47.9% of F)
  XC integration            ....       1.927 sec  ( 51.9% of F)
    Basis function eval.    ....       1.335 sec  ( 69.3% of XC)
    Density eval.           ....       0.187 sec  (  9.7% of XC)
    XC-Functional eval.     ....       0.064 sec  (  3.3% of XC)
    XC-Potential eval.      ....       0.310 sec  ( 16.1% of XC)
Diagonalization             ....       0.006 sec  (  0.1%)
Density matrix formation    ....       0.001 sec  (  0.0%)
Population analysis         ....       0.001 sec  (  0.0%)
Initial guess               ....       0.269 sec  (  5.7%)
Orbital Transformation      ....       0.000 sec  (  0.0%)
Orbital Orthonormalization  ....       0.000 sec  (  0.0%)
DIIS solution               ....       0.002 sec  (  0.0%)
SOSCF solution              ....       0.002 sec  (  0.0%)
Grid generation             ....       0.716 sec  ( 15.2%)

-------------------------   --------------------
FINAL SINGLE POINT ENERGY      -191.864647639210
-------------------------   --------------------


                            ***************************************
                            *     ORCA property calculations      *
                            ***************************************

                                    ---------------------
                                    Active property flags
                                    ---------------------
   (+) Dipole Moment
   (+) Chemical Shifts


------------------------------------------------------------------------------
                       ORCA ELECTRIC PROPERTIES CALCULATION
------------------------------------------------------------------------------

Dipole Moment Calculation                       ... on
Quadrupole Moment Calculation                   ... off
Polarizability Calculation                      ... off
GBWName                                         ... /home/jan/SoftwareDevelopment/karminus/output/olyp_ccpvdz/acrylaldehyde/acrylaldehyde.gbw
Electron density file                           ... /home/jan/SoftwareDevelopment/karminus/output/olyp_ccpvdz/acrylaldehyde/acrylaldehyde.scfp.tmp

-------------
DIPOLE MOMENT
-------------
                                X             Y             Z
Electronic contribution:      2.20138       2.49833      -0.56569
Nuclear contribution   :     -2.88946      -3.35513       0.70721
                        -----------------------------------------
Total Dipole Moment    :     -0.68807      -0.85681       0.14152
                        -----------------------------------------
Magnitude (a.u.)       :      1.10797
Magnitude (Debye)      :      2.81623

------------------------------------------------------------------------------
                                ORCA EPR/NMR CALCULATION
------------------------------------------------------------------------------

GBWName                      ... /home/jan/SoftwareDevelopment/karminus/output/olyp_ccpvdz/acrylaldehyde/acrylaldehyde.gbw
Electron density file        ... /home/jan/SoftwareDevelopment/karminus/output/olyp_ccpvdz/acrylaldehyde/acrylaldehyde.scfp.tmp
Spin density file            ... /home/jan/SoftwareDevelopment/karminus/output/olyp_ccpvdz/acrylaldehyde/acrylaldehyde.scfr.tmp
Treatment of gauge           ... GIAO (approximations 1/2el = 0,3)
Details of the CP(SCF) procedure:
       Solver   = POPLE   
       MaxIter  =    64   
       Tolerance=    1.000e-06
       Op-0     =   0- 14 =>  15- 75
Multiplicity                 ... 1
g-tensor                     ... 0
NMR chemical shifts          ... 1
Number of nuclei for epr/nmr ... 8
   Nucleus:   0C 
       Hyperfine : Isotope=   13 I=   0.500 P= 134.188
       Quadrupole: Isotope=   13 I=   0.500 Q=   0.000
       Spin-Orbit: Zeff=   3.600
       rho(0)=N f(grad)=N a(iso)=N a(dip)=N a(orb)=N sigma(nmr)=Y
   Nucleus:   1C 
       Hyperfine : Isotope=   13 I=   0.500 P= 134.188
       Quadrupole: Isotope=   13 I=   0.500 Q=   0.000
       Spin-Orbit: Zeff=   3.600
       rho(0)=N f(grad)=N a(iso)=N a(dip)=N a(orb)=N sigma(nmr)=Y
   Nucleus:   2H 
       Hyperfine : Isotope=    1 I=   0.500 P= 533.552
       Quadrupole: Isotope=    2 I=   1.000 Q=   0.003
       Spin-Orbit: Zeff=   1.000
       rho(0)=N f(grad)=N a(iso)=N a(dip)=N a(orb)=N sigma(nmr)=Y
   Nucleus:   3H 
       Hyperfine : Isotope=    1 I=   0.500 P= 533.552
       Quadrupole: Isotope=    2 I=   1.000 Q=   0.003
       Spin-Orbit: Zeff=   1.000
       rho(0)=N f(grad)=N a(iso)=N a(dip)=N a(orb)=N sigma(nmr)=Y
   Nucleus:   4C 
       Hyperfine : Isotope=   13 I=   0.500 P= 134.188
       Quadrupole: Isotope=   13 I=   0.500 Q=   0.000
       Spin-Orbit: Zeff=   3.600
       rho(0)=N f(grad)=N a(iso)=N a(dip)=N a(orb)=N sigma(nmr)=Y
   Nucleus:   5H 
       Hyperfine : Isotope=    1 I=   0.500 P= 533.552
       Quadrupole: Isotope=    2 I=   1.000 Q=   0.003
       Spin-Orbit: Zeff=   1.000
       rho(0)=N f(grad)=N a(iso)=N a(dip)=N a(orb)=N sigma(nmr)=Y
   Nucleus:   6O 
       Hyperfine : Isotope=   17 I=   2.500 P= -72.357
       Quadrupole: Isotope=   17 I=   2.500 Q=  -0.026
       Spin-Orbit: Zeff=   5.600
       rho(0)=N f(grad)=N a(iso)=N a(dip)=N a(orb)=N sigma(nmr)=Y
   Nucleus:   7H 
       Hyperfine : Isotope=    1 I=   0.500 P= 533.552
       Quadrupole: Isotope=    2 I=   1.000 Q=   0.003
       Spin-Orbit: Zeff=   1.000
       rho(0)=N f(grad)=N a(iso)=N a(dip)=N a(orb)=N sigma(nmr)=Y
Using LibInt in CPSCF-CP

Forming RHS of the CP-SCF equations         ... 
Calculating right hand sides for GIAO treatment (new)  ... 
  Entering RightHandSide GIAO. ScalHFX=    0.0000 NeedHFX=0
     -> 1-electron GIAO integrals will be done analytically
     -> RI used in SCF and no Fock exchange. RIJK enforced by the user
     Making grid for GIAO integrations   ... done
     Test of existence of the V matrix   = 1
     Test of existence of the VCD matrix = 1
     Test of existence of the VO matrix  = 0
     Warning: RI is turned on for GIAO but the V matrix or its Cholesky decomposition are not found - making it
     Calculating V           ... done
     Cholesky decomposition  ... done
     Storing V and VCD       ... done
     Cholesky decomposition-2... done
     Storing VO              ... done
  Getting the pre-screening matrix        ... done
  Extracting occupied and virtual blocks  ... 
  Operator  0  NO=  15 NV=  61 
  One-electron GIAO integrals             ...   done
  Transforming and RHS contribution       ...   done
  Calculating F[B](P)                     ...  (RI-JK)
---------------------
RI-GIAO-TRANSFORMATION (AUX index driven)
----------------------

Dimension of the orbital-basis         ... 76
Dimension of the aux-basis             ... 240
Number of (i,a) MOs                    ... 15,61
Number of ij,ia,ab pairs               ... 225,915,3721
Transformation of internal MOs         ...    0-  14
Transformation of internal/external MOs...    0-  14 to   15-  75

Mapping shells                                 ... done
Making shell addresses                         ... done
Figuring out significant basis function pairs  ... done
  N(Pairs)         ... 2926
  N(Strong pairs)  ... 2892
  Mem-Available    ... 1024 MB
  (p,q) per batch  ... 69901
  N(Batches)       ... 1
Preparing matrix containers                    ... done
Preparing AO buffer                            ... done
Calculating AO integrals and transforming AUX  ... done
Finished RI-GIAO integral generation and aux-index transformation in  0.986 sec
Mapping the MO pairs                            ... done
Getting memory                                  ... done
Second Phase: sorting and transformation of MO indices
Memory available                       ... 1024 MB 
Max. # Aux fcns treated in a batch     ... 240    
Initializing the MO transformation process      ... done
Batch   0: Q=   0 ...  239
   Reading      ... done
   Transforming ... done
Finished transformation of the MO indices in  0.143 sec
Initializing the sorting process                ... done

IJ-Resorting
# of internal pairs                    ... 225
# batches for internal pairs           ... 1
   (0) Reading      ... done
   (0) Writing      ... done
   (1) Reading      ... done
   (1) Writing      ... done
   (2) Reading      ... done
   (2) Writing      ... done
   (3) Reading      ... done
   (3) Writing      ... done
(ij|v) resorting done in     0.004 sec

IA-Resorting
# of internal orbitals                 ... 15
# batches for internal orbitals        ... 1
   (0) Reading      ... done
   (0) Writing      ... done
   (1) Reading      ... done
   (1) Writing      ... done
   (2) Reading      ... done
   (2) Writing      ... done
   (3) Reading      ... done
   (3) Writing      ... done
(ia|v) resorting done in     0.008 sec

  Resorting completed in     0.013 sec
RI-GIAO-Integral transformation completed in     1.186 sec
Reading RI-integrals ... done
Doing RI-JK          ... done
 => dG/dB done
  RI-JK GIAO contributions                ...   done
  DFT XC-terms                            ... done
  Transforming to MO basis/RHS contribs.  ... done
  GIAO profiling information: 
    Total GIAO time               ...       2.0 sec
       Grid setup                 ...       0.1 sec (  6.4%)
       RI-V-matrix setup          ...       0.0 sec (  1.7%)
       GIAO 1-electron integrals  ...       0.0 sec (  1.1%)
       GIAO RI-JK                 ...       0.3 sec ( 15.7%)
       GIAO RI integral trafo     ...       1.2 sec ( 58.3%)
       GIAO XC-terms              ...       0.3 sec ( 16.6%)

  GIAO right hand side done


Forming final perturbed densities           ... done
Transforming perturbed density to AO basis  ...  done

Magnetic field perturbation calculated in  2.105 sec

---------------
CHEMICAL SHIFTS
---------------

Note: using conversion factor for au to ppm alpha^2/2 =   26.625677252 
Doing GIAO para- and diamagnetic shielding integrals analytically     ...done
Doing remaining GIAO terms numerically                                ...done
 --------------
 Nucleus   0C :
 --------------

Diamagnetic contribution to the shielding tensor (ppm) : 
           254.269          5.247       -11.864
             9.442        257.253        10.007
           -12.212          8.917       244.460

Paramagnetic contribution to the shielding tensor (ppm): 
          -208.887         -4.183       118.709
           -30.768       -189.811       -46.770
           108.599        -63.503      -166.906

Total shielding tensor (ppm): 
            45.382          1.064       106.845
           -21.326         67.442       -36.763
            96.387        -54.586        77.554


 Diagonalized sT*s matrix:
 
 sDSO           262.687          262.089          231.207  iso=     251.994
 sPSO          -274.181         -240.050          -51.373  iso=    -188.535
        ---------------  ---------------  ---------------
 Total          -11.494           22.039          179.833  iso=      63.459

 --------------
 Nucleus   1C :
 --------------

Diamagnetic contribution to the shielding tensor (ppm) : 
           250.516         10.655       -12.343
             8.732        260.384         3.639
           -12.537          4.394       241.661

Paramagnetic contribution to the shielding tensor (ppm): 
          -192.887          5.511        90.913
            -2.447       -207.403       -53.543
            86.715        -62.109      -180.489

Total shielding tensor (ppm): 
            57.629         16.167        78.570
             6.285         52.981       -49.904
            74.178        -57.714        61.173


 Diagonalized sT*s matrix:
 
 sDSO           256.824          265.424          230.312  iso=     250.854
 sPSO          -290.980         -206.782          -83.016  iso=    -193.593
        ---------------  ---------------  ---------------
 Total          -34.156           58.642          147.296  iso=      57.261

 --------------
 Nucleus   2H :
 --------------

Diamagnetic contribution to the shielding tensor (ppm) : 
            39.576         -9.021        12.018
            -6.712         39.733        -0.914
            15.545         -3.878        52.557

Paramagnetic contribution to the shielding tensor (ppm): 
           -14.358         12.226        -9.725
             7.256        -12.931         0.764
           -14.524          1.597       -28.263

Total shielding tensor (ppm): 
            25.218          3.205         2.293
             0.544         26.802        -0.150
             1.021         -2.281        24.295


 Diagonalized sT*s matrix:
 
 sDSO            36.417           62.813           32.637  iso=      43.956
 sPSO           -14.333          -36.622           -4.597  iso=     -18.517
        ---------------  ---------------  ---------------
 Total           22.083           26.191           28.041  iso=      25.438

 --------------
 Nucleus   3H :
 --------------

Diamagnetic contribution to the shielding tensor (ppm) : 
            20.748         13.317       -26.567
            14.425         20.977        13.116
           -32.615         13.434        -2.747

Paramagnetic contribution to the shielding tensor (ppm): 
             2.722        -12.359        28.801
           -14.201          6.804       -12.336
            34.569        -13.226        27.037

Total shielding tensor (ppm): 
            23.471          0.959         2.234
             0.225         27.781         0.780
             1.953          0.208        24.290


 Diagonalized sT*s matrix:
 
 sDSO            40.301          -29.595           28.272  iso=      12.993
 sPSO           -18.557           55.329           -0.208  iso=      12.188
        ---------------  ---------------  ---------------
 Total           21.744           25.734           28.063  iso=      25.180

 --------------
 Nucleus   4C :
 --------------

Diamagnetic contribution to the shielding tensor (ppm) : 
           260.760          4.312        -3.683
             3.835        257.601        -0.640
            -0.389         -2.183       257.916

Paramagnetic contribution to the shielding tensor (ppm): 
          -248.505         -6.501        68.013
             0.887       -262.978       -49.516
            68.114        -42.409      -237.119

Total shielding tensor (ppm): 
            12.255         -2.188        64.330
             4.722         -5.377       -50.156
            67.725        -44.592        20.797


 Diagonalized sT*s matrix:
 
 sDSO           262.641          257.453          256.182  iso=     258.759
 sPSO          -260.957         -326.409         -161.236  iso=    -249.534
        ---------------  ---------------  ---------------
 Total            1.685          -68.956           94.946  iso=       9.225

 --------------
 Nucleus   5H :
 --------------

Diamagnetic contribution to the shielding tensor (ppm) : 
            15.374          5.588       -22.155
             5.254         30.611        15.108
           -26.021         19.169         4.219

Paramagnetic contribution to the shielding tensor (ppm): 
            10.484         -3.061        23.192
            -2.745         -4.785       -17.019
            27.036        -21.135        19.681

Total shielding tensor (ppm): 
            25.858          2.527         1.037
             2.510         25.826        -1.911
             1.015         -1.966        23.900


 Diagonalized sT*s matrix:
 
 sDSO            40.902          -20.347           29.649  iso=      16.735
 sPSO           -19.434           45.993           -1.178  iso=       8.460
        ---------------  ---------------  ---------------
 Total           21.468           25.645           28.470  iso=      25.195

 --------------
 Nucleus   6O :
 --------------

Diamagnetic contribution to the shielding tensor (ppm) : 
           386.825         16.016       -11.606
            11.976        412.069        -2.188
            -8.878          8.122       378.471

Paramagnetic contribution to the shielding tensor (ppm): 
          -688.984       -474.668       303.348
          -383.505      -1140.345      -198.841
           341.553       -140.240      -363.609

Total shielding tensor (ppm): 
          -302.159       -458.651       291.742
          -371.529       -728.276      -201.029
           332.676       -132.119        14.862


 Diagonalized sT*s matrix:
 
 sDSO           369.366          390.165          417.834  iso=     392.455
 sPSO           -31.408         -762.574        -1398.957  iso=    -730.979
        ---------------  ---------------  ---------------
 Total          337.958         -372.408         -981.122  iso=    -338.524

 --------------
 Nucleus   7H :
 --------------

Diamagnetic contribution to the shielding tensor (ppm) : 
            46.485        -12.818        17.559
           -13.773         39.886        -7.028
            23.661        -10.463        66.849

Paramagnetic contribution to the shielding tensor (ppm): 
           -24.123         14.015       -17.745
            12.228        -19.385         7.779
           -25.074          9.024       -44.889

Total shielding tensor (ppm): 
            22.362          1.197        -0.187
            -1.545         20.501         0.751
            -1.413         -1.439        21.960


 Diagonalized sT*s matrix:
 
 sDSO            35.751           84.052           33.416  iso=      51.073
 sPSO           -15.393          -62.571          -10.433  iso=     -29.466
        ---------------  ---------------  ---------------
 Total           20.358           21.481           22.983  iso=      21.608



--------------------------
CHEMICAL SHIELDING SUMMARY (ppm)
--------------------------


  Nucleus  Element    Isotropic     Anisotropy
  -------  -------  ------------   ------------
      0       C           63.459        174.561 
      1       C           57.261        135.053 
      2       H           25.438          3.903 
      3       H           25.180          4.324 
      4       C            9.225        128.582 
      5       H           25.195          4.914 
      6       O         -338.524       -963.897 
      7       H           21.608          2.063 



Timings for individual modules:

Sum of individual times         ...       10.801 sec (=   0.180 min)
GTO integral calculation        ...        0.141 sec (=   0.002 min)   1.3 %
SCF iterations                  ...        4.726 sec (=   0.079 min)  43.8 %
SCF-level EPR/NMR calculation   ...        5.934 sec (=   0.099 min)  54.9 %
                             ****ORCA TERMINATED NORMALLY****
TOTAL RUN TIME: 0 days 0 hours 0 minutes 10 seconds 892 msec
