
                                 *****************
                                 * O   R   C   A *
                                 *****************

           --- An Ab Initio, DFT and Semiempirical electronic structure package ---

                  #######################################################
                  #                        -***-                        #
                  #  Department of molecular theory and spectroscopy    #
                  #              Directorship: Frank Neese              #
                  # Max Planck Institute for Chemical Energy Conversion #
                  #                  D-45470 Muelheim/Ruhr              #
                  #                       Germany                       #
                  #                                                     #
                  #                  All rights reserved                #
                  #                        -***-                        #
                  #######################################################


                         Program Version 4.0.0.2 - RELEASE -


 With contributions from (in alphabetic order):
   Daniel Aravena         : Magnetic Properties
   Michael Atanasov       : Ab Initio Ligand Field Theory
   Ute Becker             : Parallelization
   Martin Brehm           : Molecular dynamics
   Dmytro Bykov           : SCF Hessian
   Vijay G. Chilkuri      : MRCI spin determinant printing
   Dipayan Datta          : RHF DLPNO-CCSD density
   Achintya Kumar Dutta   : EOM-CC, STEOM-CC
   Dmitry Ganyushin       : Spin-Orbit,Spin-Spin,Magnetic field MRCI
   Yang Guo               : DLPNO-NEVPT2, CIM, IAO-localization
   Andreas Hansen         : Spin unrestricted coupled pair/coupled cluster methods
   Lee Huntington         : MR-EOM, pCC
   Robert Izsak           : Overlap fitted RIJCOSX, COSX-SCS-MP3, EOM
   Christian Kollmar      : KDIIS, OOCD, Brueckner-CCSD(T), CCSD density
   Simone Kossmann        : Meta GGA functionals, TD-DFT gradient, OOMP2, MP2 Hessian
   Martin Krupicka        : AUTO-CI
   Dagmar Lenk            : GEPOL surface
   Dimitrios Liakos       : Extrapolation schemes; parallel MDCI
   Dimitrios Manganas     : ROCIS; embedding schemes
   Dimitrios Pantazis     : SARC Basis sets
   Taras Petrenko         : DFT Hessian,TD-DFT gradient, ASA, ECA, R-Raman, ABS, FL, XAS/XES, NRVS
   Peter Pinski           : DLPNO-MP2
   Christoph Reimann      : Effective Core Potentials
   Marius Retegan         : Local ZFS, SOC
   Christoph Riplinger    : Optimizer, TS searches, QM/MM, DLPNO-CCSD(T), (RO)-DLPNO pert. Triples
   Tobias Risthaus        : Range-separated hybrids, TD-DFT gradient, RPA, STAB
   Michael Roemelt        : Restricted open shell CIS
   Masaaki Saitow         : Open-shell DLPNO
   Barbara Sandhoefer     : DKH picture change effects
   Kantharuban Sivalingam : CASSCF convergence, NEVPT2, FIC-MRCI
   Georgi Stoychev        : AutoAux
   Boris Wezisla          : Elementary symmetry handling
   Frank Wennmohs         : Technical directorship


 We gratefully acknowledge several colleagues who have allowed us to
 interface, adapt or use parts of their codes:
   Stefan Grimme, W. Hujo, H. Kruse,             : VdW corrections, initial TS optimization,
                  C. Bannwarth                     DFT functionals, gCP, sTDA/sTD-DF
   Ed Valeev                                     : LibInt (2-el integral package), F12 methods
   Garnet Chan, S. Sharma, J. Yang, R. Olivares  : DMRG
   Ulf Ekstrom                                   : XCFun DFT Library
   Mihaly Kallay                                 : mrcc  (arbitrary order and MRCC methods)
   Jiri Pittner, Ondrej Demel                    : Mk-CCSD
   Frank Weinhold                                : gennbo (NPA and NBO analysis)
   Christopher J. Cramer and Donald G. Truhlar   : smd solvation model


 Your calculation uses the libint2 library for the computation of 2-el integrals
 For citations please refer to: http://libint.valeyev.net

 This ORCA versions uses:
   CBLAS   interface :  Fast vector & matrix operations
   LAPACKE interface :  Fast linear algebra routines
   SCALAPACK package :  Parallel linear algebra routines




*****************************************
The coordinations will be read from file: guess.xyz
*****************************************



Information: The global flag for chemical shieldings has been found
             ==>> will calculate the chemical shifts for all atoms in the system

Your calculation utilizes the basis: cc-pVDZ 
       H, B-Ne : Obtained from the ccRepo (grant-hill.group.shef.ac.uk/ccrepo) Feb. 2017
                 T. H. Dunning, Jr., J. Chem. Phys. 90, 1007 (1989)
            He : Obtained from the ccRepo (grant-hill.group.shef.ac.uk/ccrepo) Feb. 2017
                 D. E. Woon, T. H. Dunning, Jr., J. Chem. Phys. 100, 2975 (1994)
  Li-Be, Na-Mg : Obtained from the ccRepo (grant-hill.group.shef.ac.uk/ccrepo) Feb. 2017
                 B. P. Prascher, D. E. Woon, K. A. Peterson, T. H. Dunning, Jr., A. K. Wilson, Theor. Chem. Acc. 128, 69 (2011)
         Al-Ar : Obtained from the ccRepo (grant-hill.group.shef.ac.uk/ccrepo) Feb. 2017
                 D. E. Woon, T. H. Dunning, Jr., J. Chem. Phys. 98, 1358 (1993)
            Ca : Obtained from the Peterson Research Group Website (tyr0.chem.wsu.edu/~kipeters) Feb. 2017
                 J. Koput, K. A. Peterson, J. Phys. Chem. 106, 9595 (2002)
         Sc-Zn : Obtained from the ccRepo (grant-hill.group.shef.ac.uk/ccrepo) Feb. 2017
                 N. B. Balabanov, K. A. Peterson, J. Chem. Phys. 123, 064107 (2005)
                 N. B. Balabanov, K. A. Peterson, J. Chem. Phys. 125, 074110 (2006)
         Ga-Kr : Obtained from the ccRepo (grant-hill.group.shef.ac.uk/ccrepo) Feb. 2017
                 A. K. Wilson, D. E. Woon, K. A. Peterson, T. H. Dunning, Jr., J. Chem. Phys. 110, 7667 (1999)

Your calculation utilizes the auxiliary basis: def2/J
   F. Weigend, Phys. Chem. Chem. Phys. 8, 1057 (2006).

================================================================================
                                        WARNINGS
                       Please study these warnings very carefully!
================================================================================

Warning: TCutStore was < 0. Adjusted to Thresh (uncritical)

INFO   : the flag for use of LIBINT has been found!

CheckInput: checking for shifts: .
================================================================================
                                       INPUT FILE
================================================================================
NAME = /home/jan/SoftwareDevelopment/karminus/output/bp86_ccpvdz/ortho_amino_phenol/ortho_amino_phenol.in
|  1> !cc-pvdz BP86 NMR
|  2> 
|  3> *xyzfile 0 1 guess.xyz
|  4> 
|  5> 
|  6>                          ****END OF INPUT****
================================================================================

                       ****************************
                       * Single Point Calculation *
                       ****************************

---------------------------------
CARTESIAN COORDINATES (ANGSTROEM)
---------------------------------
  C    -16.979860    2.292040    9.225100
  C    -15.907740    1.717900    8.558130
  C    -14.855330    2.542620    8.176570
  C    -14.874550    3.927780    8.459020
  C    -15.950060    4.532760    9.133800
  C    -16.994560    3.665290    9.502860
  O    -18.109760    4.108520   10.166330
  H    -17.996220    5.055150   10.293900
  H    -17.813240    1.665840    9.532540
  H    -14.021180    4.516920    8.133950
  H    -15.898280    0.651030    8.343350
  H    -14.012690    2.095370    7.653150
  N    -15.956810    5.898300    9.405930
  H    -15.185980    6.493290    9.124680
  H    -16.700820    6.383550    9.885870

----------------------------
CARTESIAN COORDINATES (A.U.)
----------------------------
  NO LB      ZA    FRAG     MASS         X           Y           Z
   0 C     6.0000    0    12.011  -32.087285    4.331328   17.432913
   1 C     6.0000    0    12.011  -30.061272    3.246361   16.172522
   2 C     6.0000    0    12.011  -28.072505    4.804855   15.451478
   3 C     6.0000    0    12.011  -28.108826    7.422429   15.985231
   4 C     6.0000    0    12.011  -30.141245    8.565675   17.260381
   5 C     6.0000    0    12.011  -32.115064    6.926394   17.957803
   6 O     8.0000    0    15.999  -34.222487    7.763978   19.211579
   7 H     1.0000    0     1.008  -34.007927    9.552849   19.452652
   8 H     1.0000    0     1.008  -33.662145    3.147981   18.013890
   9 H     1.0000    0     1.008  -26.496190    8.535742   15.370938
  10 H     1.0000    0     1.008  -30.043395    1.230268   15.766647
  11 H     1.0000    0     1.008  -26.480146    3.959675   14.462358
  12 N     7.0000    0    14.007  -30.154001   11.146172   17.774632
  13 H     1.0000    0     1.008  -28.697343   12.270540   17.243146
  14 H     1.0000    0     1.008  -31.559976   12.063161   18.681587

--------------------------------
INTERNAL COORDINATES (ANGSTROEM)
--------------------------------
 C      0   0   0     0.000000000000     0.00000000     0.00000000
 C      1   0   0     1.387056961664     0.00000000     0.00000000
 C      2   1   0     1.390438031737   118.13006977     0.00000000
 C      3   2   1     1.413794764632   121.06501750     0.00000000
 C      4   3   2     1.406431871404   121.84934161     0.00000000
 C      1   2   3     1.401136064092   120.60534849     0.00000000
 O      6   1   2     1.371246263003   114.91339058   179.99970810
 H      7   6   1     0.961911530963   106.63471901   179.99959416
 H      1   2   3     1.086815540007   119.35572850   180.00016087
 H      4   3   2     1.086736767299   117.43251366   180.00064958
 H      2   1   3     1.088315917783   120.48983125   179.99922304
 H      3   2   1     1.088137504408   118.31605319   179.99985571
 N      5   4   3     1.392407911138   121.28711702   180.00068383
 H     13   5   4     1.013554907985   121.18390429     0.00000000
 H     13   5   4     1.009634015968   124.59846378   180.00089462

---------------------------
INTERNAL COORDINATES (A.U.)
---------------------------
 C      0   0   0     0.000000000000     0.00000000     0.00000000
 C      1   0   0     2.621157789693     0.00000000     0.00000000
 C      2   1   0     2.627547086171   118.13006977     0.00000000
 C      3   2   1     2.671684914726   121.06501750     0.00000000
 C      4   3   2     2.657771062971   121.84934161     0.00000000
 C      1   2   3     2.647763437495   120.60534849     0.00000000
 O      6   1   2     2.591279899239   114.91339058   179.99970810
 H      7   6   1     1.817749358581   106.63471901   179.99959416
 H      1   2   3     2.053783728702   119.35572850   180.00016087
 H      4   3   2     2.053634869858   117.43251366   180.00064958
 H      2   1   3     2.056619031797   120.48983125   179.99922304
 H      3   2   1     2.056281879380   118.31605319   179.99985571
 N      5   4   3     2.631269618756   121.28711702   180.00068383
 H     13   5   4     1.915341197783   121.18390429     0.00000000
 H     13   5   4     1.907931785671   124.59846378   180.00089462

---------------------
BASIS SET INFORMATION
---------------------
There are 4 groups of distinct atoms

 Group   1 Type C   : 17s4p1d contracted to 3s2p1d pattern {881/31/1}
 Group   2 Type O   : 17s4p1d contracted to 3s2p1d pattern {881/31/1}
 Group   3 Type H   : 4s1p contracted to 2s1p pattern {31/1}
 Group   4 Type N   : 17s4p1d contracted to 3s2p1d pattern {881/31/1}

Atom   0C    basis set group =>   1
Atom   1C    basis set group =>   1
Atom   2C    basis set group =>   1
Atom   3C    basis set group =>   1
Atom   4C    basis set group =>   1
Atom   5C    basis set group =>   1
Atom   6O    basis set group =>   2
Atom   7H    basis set group =>   3
Atom   8H    basis set group =>   3
Atom   9H    basis set group =>   3
Atom  10H    basis set group =>   3
Atom  11H    basis set group =>   3
Atom  12N    basis set group =>   4
Atom  13H    basis set group =>   3
Atom  14H    basis set group =>   3
-------------------------------
AUXILIARY BASIS SET INFORMATION
-------------------------------
There are 4 groups of distinct atoms

 Group   1 Type C   : 12s5p4d2f1g contracted to 6s4p3d1f1g pattern {711111/2111/211/2/1}
 Group   2 Type O   : 12s5p4d2f1g contracted to 6s4p3d1f1g pattern {711111/2111/211/2/1}
 Group   3 Type H   : 5s2p1d contracted to 3s1p1d pattern {311/2/1}
 Group   4 Type N   : 12s5p4d2f1g contracted to 6s4p3d1f1g pattern {711111/2111/211/2/1}

Atom   0C    basis set group =>   1
Atom   1C    basis set group =>   1
Atom   2C    basis set group =>   1
Atom   3C    basis set group =>   1
Atom   4C    basis set group =>   1
Atom   5C    basis set group =>   1
Atom   6O    basis set group =>   2
Atom   7H    basis set group =>   3
Atom   8H    basis set group =>   3
Atom   9H    basis set group =>   3
Atom  10H    basis set group =>   3
Atom  11H    basis set group =>   3
Atom  12N    basis set group =>   4
Atom  13H    basis set group =>   3
Atom  14H    basis set group =>   3
------------------------------------------------------------------------------
                           ORCA GTO INTEGRAL CALCULATION
                           -- RI-GTO INTEGRALS CHOSEN --
------------------------------------------------------------------------------

                         BASIS SET STATISTICS AND STARTUP INFO

Gaussian basis set:
 # of primitive gaussian shells          ...  211
 # of primitive gaussian functions       ...  321
 # of contracted shells                  ...   69
 # of contracted basis functions         ...  147
 Highest angular momentum                ...    2
 Maximum contraction depth               ...    8
Auxiliary gaussian basis set:
 # of primitive gaussian shells          ...  248
 # of primitive gaussian functions       ...  672
 # of contracted shells                  ...  155
 # of contracted aux-basis functions     ...  469
 Highest angular momentum                ...    4
 Maximum contraction depth               ...    7
Ratio of auxiliary to basis functions    ...  3.19
Integral package used                  ... LIBINT
 One Electron integrals                  ... done
 Ordering auxiliary basis shells         ... done
 Integral threshhold             Thresh  ...  1.000e-10
 Primitive cut-off               TCut    ...  1.000e-11
 Pre-screening matrix                    ... done
 Shell pair data                         ... 
 Ordering of the shell pairs             ... done (   0.000 sec) 2368 of 2415 pairs
 Determination of significant pairs      ... done (   0.000 sec)
 Creation of shell pair data             ... done (   0.002 sec)
 Storage of shell pair data              ... done (   0.001 sec)
 Shell pair data done in (   0.004 sec)
 Computing two index integrals           ... done
 Cholesky decomposition of the V-matrix  ... done


Timings:
 Total evaluation time                   ...   0.266 sec (  0.004 min)
 One electron matrix time                ...   0.021 sec (  0.000 min) =  7.8%
 Schwartz matrix evaluation time         ...   0.210 sec (  0.004 min) = 79.0%
 Two index repulsion integral time       ...   0.008 sec (  0.000 min) =  2.9%
 Cholesky decomposition of V             ...   0.004 sec (  0.000 min) =  1.5%
 Three index repulsion integral time     ...   0.000 sec (  0.000 min) =  0.0%

-------------------------------------------------------------------------------
                                 ORCA SCF
-------------------------------------------------------------------------------

------------
SCF SETTINGS
------------
Hamiltonian:
 Density Functional     Method          .... DFT(GTOs)
 Exchange Functional    Exchange        .... B88
   X-Alpha parameter    XAlpha          ....  0.666667
   Becke's b parameter  XBeta           ....  0.004200
 Correlation Functional Correlation     .... P86
 LDA part of GGA corr.  LDAOpt          .... PW91-LDA
 Gradients option       PostSCFGGA      .... off
 RI-approximation to the Coulomb term is turned on
   Number of auxiliary basis functions  .... 469


General Settings:
 Integral files         IntName         .... /home/jan/SoftwareDevelopment/karminus/output/bp86_ccpvdz/ortho_amino_phenol/ortho_amino_phenol
 Hartree-Fock type      HFTyp           .... RHF
 Total Charge           Charge          ....    0
 Multiplicity           Mult            ....    1
 Number of Electrons    NEL             ....   58
 Basis Dimension        Dim             ....  147
 Nuclear Repulsion      ENuc            ....    349.4685047252 Eh

Convergence Acceleration:
 DIIS                   CNVDIIS         .... on
   Start iteration      DIISMaxIt       ....    12
   Startup error        DIISStart       ....  0.200000
   # of expansion vecs  DIISMaxEq       ....     5
   Bias factor          DIISBfac        ....   1.050
   Max. coefficient     DIISMaxC        ....  10.000
 Newton-Raphson         CNVNR           .... off
 SOSCF                  CNVSOSCF        .... on
   Start iteration      SOSCFMaxIt      ....   150
   Startup grad/error   SOSCFStart      ....  0.003300
 Level Shifting         CNVShift        .... on
   Level shift para.    LevelShift      ....    0.2500
   Turn off err/grad.   ShiftErr        ....    0.0010
 Zerner damping         CNVZerner       .... off
 Static damping         CNVDamp         .... on
   Fraction old density DampFac         ....    0.7000
   Max. Damping (<1)    DampMax         ....    0.9800
   Min. Damping (>=0)   DampMin         ....    0.0000
   Turn off err/grad.   DampErr         ....    0.1000
 Fernandez-Rico         CNVRico         .... off

SCF Procedure:
 Maximum # iterations   MaxIter         ....   125
 SCF integral mode      SCFMode         .... Direct
   Integral package                     .... LIBINT
 Reset frequeny         DirectResetFreq ....    20
 Integral Threshold     Thresh          ....  1.000e-10 Eh
 Primitive CutOff       TCut            ....  1.000e-11 Eh

Convergence Tolerance:
 Convergence Check Mode ConvCheckMode   .... Total+1el-Energy
 Convergence forced     ConvForced      .... 0
 Energy Change          TolE            ....  1.000e-06 Eh
 1-El. energy change                    ....  1.000e-03 Eh
 Orbital Gradient       TolG            ....  5.000e-05
 Orbital Rotation angle TolX            ....  5.000e-05
 DIIS Error             TolErr          ....  1.000e-06


Diagonalization of the overlap matrix:
Smallest eigenvalue                        ... 3.700e-04
Time for diagonalization                   ...    0.003 sec
Threshold for overlap eigenvalues          ... 1.000e-08
Number of eigenvalues below threshold      ... 0
Time for construction of square roots      ...    0.001 sec
Total time needed                          ...    0.004 sec

-------------------
DFT GRID GENERATION
-------------------

General Integration Accuracy     IntAcc      ...  4.340
Radial Grid Type                 RadialGrid  ... Gauss-Chebyshev
Angular Grid (max. acc.)         AngularGrid ... Lebedev-110
Angular grid pruning method      GridPruning ... 3 (G Style)
Weight generation scheme         WeightScheme... Becke
Basis function cutoff            BFCut       ...    1.0000e-10
Integration weight cutoff        WCut        ...    1.0000e-14
Grids for H and He will be reduced by one unit

# of grid points (after initial pruning)     ...  18912 (   0.0 sec)
# of grid points (after weights+screening)   ...  17654 (   0.0 sec)
nearest neighbour list constructed           ...    0.0 sec
Grid point re-assignment to atoms done       ...    0.0 sec
Grid point division into batches done        ...    0.0 sec
Reduced shell lists constructed in    0.4 sec

Total number of grid points                  ...    17654
Total number of batches                      ...      285
Average number of points per batch           ...       61
Average number of grid points per atom       ...     1177
Average number of shells per batch           ...    52.88 (76.63%)
Average number of basis functions per batch  ...   110.75 (75.34%)
Average number of large shells per batch     ...    40.67 (76.92%)
Average number of large basis fcns per batch ...    85.91 (77.57%)
Maximum spatial batch extension              ...  21.54, 17.62, 29.18 au
Average spatial batch extension              ...   4.23,  3.59,  4.63 au

Time for grid setup =    0.486 sec

------------------------------
INITIAL GUESS: MODEL POTENTIAL
------------------------------
Loading Hartree-Fock densities                     ... done
Calculating cut-offs                               ... done
Setting up the integral package                    ... done
Initializing the effective Hamiltonian             ... done
Starting the Coulomb interaction                   ... done (   0.4 sec)
Reading the grid                                   ... done
Mapping shells                                     ... done
Starting the XC term evaluation                    ... done (   0.5 sec)
  promolecular density results
     # of electrons  =     58.004930176
     EX              =    -47.718983831
     EC              =     -2.111510537
     EX+EC           =    -49.830494368
Transforming the Hamiltonian                       ... done (   0.0 sec)
Diagonalizing the Hamiltonian                      ... done (   0.0 sec)
Back transforming the eigenvectors                 ... done (   0.0 sec)
Now organizing SCF variables                       ... done
                      ------------------
                      INITIAL GUESS DONE (   1.4 sec)
                      ------------------
--------------
SCF ITERATIONS
--------------
ITER       Energy         Delta-E        Max-DP      RMS-DP      [F,P]     Damp
               ***  Starting incremental Fock matrix formation  ***
  0   -362.6301830592   0.000000000000 0.07406716  0.00250813  0.2206681 0.7000
  1   -362.7342674315  -0.104084372273 0.04344494  0.00173655  0.0958838 0.7000
                               ***Turning on DIIS***
  2   -362.7709660820  -0.036698650438 0.05291389  0.00257277  0.0266596 0.0000
  3   -362.8249791628  -0.054013080821 0.02810474  0.00117237  0.0528733 0.0000
  4   -362.8410825698  -0.016103406984 0.00773953  0.00040713  0.0092731 0.0000
  5   -362.8421870437  -0.001104473933 0.00430518  0.00013841  0.0056573 0.0000
                      *** Initiating the SOSCF procedure ***
                           *** Shutting down DIIS ***
                      *** Re-Reading the Fockian *** 
                      *** Removing any level shift *** 
ITER      Energy       Delta-E        Grad      Rot      Max-DP    RMS-DP
  6   -362.84228941  -0.0001023655  0.000483  0.000483  0.001377  0.000076
               *** Restarting incremental Fock matrix formation ***
  7   -362.84228898   0.0000004258  0.000725  0.005051  0.003103  0.000103
  8   -362.84224465   0.0000443363  0.001993  0.003736  0.002285  0.000075
  9   -362.84229596  -0.0000513167  0.000078  0.000387  0.000622  0.000015
 10   -362.84229509   0.0000008712  0.000168  0.000328  0.000410  0.000011
 11   -362.84229619  -0.0000010953  0.000019  0.000107  0.000113  0.000003
                 **** Energy Check signals convergence ****
              ***Rediagonalizing the Fockian in SOSCF/NRSCF***

               *****************************************************
               *                     SUCCESS                       *
               *           SCF CONVERGED AFTER  12 CYCLES          *
               *****************************************************

Setting up the final grid:

General Integration Accuracy     IntAcc      ...  4.670
Radial Grid Type                 RadialGrid  ... Gauss-Chebyshev
Angular Grid (max. acc.)         AngularGrid ... Lebedev-302
Angular grid pruning method      GridPruning ... 3 (G Style)
Weight generation scheme         WeightScheme... Becke
Basis function cutoff            BFCut       ...    1.0000e-10
Integration weight cutoff        WCut        ...    1.0000e-14
Grids for H and He will be reduced by one unit

# of grid points (after initial pruning)     ...  73454 (   0.0 sec)
# of grid points (after weights+screening)   ...  67493 (   0.1 sec)
nearest neighbour list constructed           ...    0.0 sec
Grid point re-assignment to atoms done       ...    0.0 sec
Grid point division into batches done        ...    0.2 sec
Reduced shell lists constructed in    1.7 sec

Total number of grid points                  ...    67493
Total number of batches                      ...     1061
Average number of points per batch           ...       63
Average number of grid points per atom       ...     4500
Average number of shells per batch           ...    48.16 (69.79%)
Average number of basis functions per batch  ...   100.57 (68.41%)
Average number of large shells per batch     ...    36.16 (75.08%)
Average number of large basis fcns per batch ...    76.08 (75.65%)
Maximum spatial batch extension              ...  17.79, 16.79, 27.61 au
Average spatial batch extension              ...   2.61,  2.45,  2.87 au

Final grid set up in    1.9 sec
Final integration                            ... done (   1.7 sec)
Change in XC energy                          ...     0.000616463
Integrated number of electrons               ...    58.000068681
Previous integrated no of electrons          ...    58.004307502

----------------
TOTAL SCF ENERGY
----------------

Total Energy       :         -362.84167971 Eh           -9873.42406 eV

Components:
Nuclear Repulsion  :          349.46850473 Eh            9509.52147 eV
Electronic Energy  :         -712.31018443 Eh          -19382.94553 eV
One Electron Energy:        -1183.94791084 Eh          -32216.86053 eV
Two Electron Energy:          471.63772640 Eh           12833.91500 eV

Virial components:
Potential Energy   :         -723.17654387 Eh          -19678.63420 eV
Kinetic Energy     :          360.33486417 Eh            9805.21014 eV
Virial Ratio       :            2.00695691


DFT components:
N(Alpha)           :       29.000034340575 electrons
N(Beta)            :       29.000034340575 electrons
N(Total)           :       58.000068681149 electrons
E(X)               :      -48.602923621826 Eh       
E(C)               :       -2.125126425010 Eh       
E(XC)              :      -50.728050046836 Eh       

---------------
SCF CONVERGENCE
---------------

  Last Energy change         ...    1.8916e-08  Tolerance :   1.0000e-06
  Last MAX-Density change    ...    7.2158e-05  Tolerance :   1.0000e-05
  Last RMS-Density change    ...    1.6668e-06  Tolerance :   1.0000e-06
  Last Orbital Gradient      ...    3.8577e-05  Tolerance :   5.0000e-05
  Last Orbital Rotation      ...    7.4747e-05  Tolerance :   5.0000e-05

             **** THE GBW FILE WAS UPDATED (/home/jan/SoftwareDevelopment/karminus/output/bp86_ccpvdz/ortho_amino_phenol/ortho_amino_phenol.gbw) ****
             **** DENSITY FILE WAS UPDATED (/home/jan/SoftwareDevelopment/karminus/output/bp86_ccpvdz/ortho_amino_phenol/ortho_amino_phenol.scfp.tmp) ****
             **** ENERGY FILE WAS UPDATED (/home/jan/SoftwareDevelopment/karminus/output/bp86_ccpvdz/ortho_amino_phenol/ortho_amino_phenol.en.tmp) ****
----------------
ORBITAL ENERGIES
----------------

  NO   OCC          E(Eh)            E(eV) 
   0   2.0000     -18.810240      -511.8526 
   1   2.0000     -14.035055      -381.9133 
   2   2.0000      -9.957707      -270.9630 
   3   2.0000      -9.952803      -270.8295 
   4   2.0000      -9.904093      -269.5041 
   5   2.0000      -9.897494      -269.3245 
   6   2.0000      -9.897080      -269.3132 
   7   2.0000      -9.893696      -269.2212 
   8   2.0000      -0.973402       -26.4876 
   9   2.0000      -0.840956       -22.8836 
  10   2.0000      -0.754964       -20.5436 
  11   2.0000      -0.662060       -18.0156 
  12   2.0000      -0.655180       -17.8283 
  13   2.0000      -0.558822       -15.2063 
  14   2.0000      -0.543517       -14.7899 
  15   2.0000      -0.506212       -13.7747 
  16   2.0000      -0.470014       -12.7897 
  17   2.0000      -0.439819       -11.9681 
  18   2.0000      -0.411881       -11.2079 
  19   2.0000      -0.388611       -10.5746 
  20   2.0000      -0.371090       -10.0979 
  21   2.0000      -0.363569        -9.8932 
  22   2.0000      -0.334707        -9.1078 
  23   2.0000      -0.309914        -8.4332 
  24   2.0000      -0.296618        -8.0714 
  25   2.0000      -0.293196        -7.9783 
  26   2.0000      -0.268838        -7.3154 
  27   2.0000      -0.194550        -5.2940 
  28   2.0000      -0.163226        -4.4416 
  29   0.0000      -0.019635        -0.5343 
  30   0.0000      -0.005785        -0.1574 
  31   0.0000      -0.001304        -0.0355 
  32   0.0000       0.053121         1.4455 
  33   0.0000       0.067903         1.8477 
  34   0.0000       0.098519         2.6808 
  35   0.0000       0.114442         3.1141 
  36   0.0000       0.122518         3.3339 
  37   0.0000       0.132938         3.6174 
  38   0.0000       0.143409         3.9024 
  39   0.0000       0.180911         4.9228 
  40   0.0000       0.218820         5.9544 
  41   0.0000       0.266704         7.2574 
  42   0.0000       0.280423         7.6307 
  43   0.0000       0.289963         7.8903 
  44   0.0000       0.318860         8.6766 
  45   0.0000       0.395754        10.7690 
  46   0.0000       0.407999        11.1022 
  47   0.0000       0.421491        11.4694 
  48   0.0000       0.432903        11.7799 
  49   0.0000       0.446609        12.1528 
  50   0.0000       0.469346        12.7715 
  51   0.0000       0.478501        13.0207 
  52   0.0000       0.484527        13.1846 
  53   0.0000       0.492665        13.4061 
  54   0.0000       0.493476        13.4282 
  55   0.0000       0.497493        13.5375 
  56   0.0000       0.509191        13.8558 
  57   0.0000       0.523374        14.2417 
  58   0.0000       0.550490        14.9796 
  59   0.0000       0.558205        15.1895 
  60   0.0000       0.575833        15.6692 
  61   0.0000       0.610813        16.6211 
  62   0.0000       0.623522        16.9669 
  63   0.0000       0.626834        17.0570 
  64   0.0000       0.662121        18.0172 
  65   0.0000       0.676241        18.4014 
  66   0.0000       0.714693        19.4478 
  67   0.0000       0.715889        19.4803 
  68   0.0000       0.728184        19.8149 
  69   0.0000       0.774815        21.0838 
  70   0.0000       0.808783        22.0081 
  71   0.0000       0.825155        22.4536 
  72   0.0000       0.859460        23.3871 
  73   0.0000       0.867452        23.6046 
  74   0.0000       0.890113        24.2212 
  75   0.0000       0.927319        25.2336 
  76   0.0000       0.937978        25.5237 
  77   0.0000       0.956787        26.0355 
  78   0.0000       0.961208        26.1558 
  79   0.0000       0.965919        26.2840 
  80   0.0000       0.991482        26.9796 
  81   0.0000       1.012236        27.5443 
  82   0.0000       1.015811        27.6416 
  83   0.0000       1.057040        28.7635 
  84   0.0000       1.074794        29.2466 
  85   0.0000       1.089936        29.6587 
  86   0.0000       1.117396        30.4059 
  87   0.0000       1.155000        31.4291 
  88   0.0000       1.176639        32.0180 
  89   0.0000       1.276078        34.7238 
  90   0.0000       1.279507        34.8172 
  91   0.0000       1.352626        36.8068 
  92   0.0000       1.412877        38.4463 
  93   0.0000       1.421119        38.6706 
  94   0.0000       1.434094        39.0237 
  95   0.0000       1.434355        39.0308 
  96   0.0000       1.481858        40.3234 
  97   0.0000       1.482125        40.3307 
  98   0.0000       1.522679        41.4342 
  99   0.0000       1.540428        41.9172 
 100   0.0000       1.551787        42.2263 
 101   0.0000       1.577688        42.9311 
 102   0.0000       1.577916        42.9373 
 103   0.0000       1.595212        43.4079 
 104   0.0000       1.605792        43.6958 
 105   0.0000       1.639151        44.6036 
 106   0.0000       1.653688        44.9991 
 107   0.0000       1.665711        45.3263 
 108   0.0000       1.693919        46.0939 
 109   0.0000       1.702100        46.3165 
 110   0.0000       1.741968        47.4014 
 111   0.0000       1.745393        47.4946 
 112   0.0000       1.759971        47.8913 
 113   0.0000       1.770442        48.1762 
 114   0.0000       1.806192        49.1490 
 115   0.0000       1.807545        49.1858 
 116   0.0000       1.846850        50.2553 
 117   0.0000       1.870609        50.9018 
 118   0.0000       1.937400        52.7193 
 119   0.0000       1.970804        53.6283 
 120   0.0000       2.013878        54.8004 
 121   0.0000       2.035289        55.3830 
 122   0.0000       2.049022        55.7567 
 123   0.0000       2.066827        56.2412 
 124   0.0000       2.071977        56.3814 
 125   0.0000       2.162602        58.8474 
 126   0.0000       2.198333        59.8197 
 127   0.0000       2.259054        61.4720 
 128   0.0000       2.268493        61.7288 
 129   0.0000       2.275763        61.9267 
 130   0.0000       2.314548        62.9821 
 131   0.0000       2.332637        63.4743 
 132   0.0000       2.366758        64.4028 
 133   0.0000       2.480289        67.4921 
 134   0.0000       2.525707        68.7280 
 135   0.0000       2.585885        70.3655 
 136   0.0000       2.655510        72.2601 
 137   0.0000       2.691353        73.2354 
 138   0.0000       2.738576        74.5204 
 139   0.0000       2.800163        76.1963 
 140   0.0000       2.835695        77.1632 
 141   0.0000       2.856245        77.7224 
 142   0.0000       3.079870        83.8075 
 143   0.0000       3.118310        84.8535 
 144   0.0000       3.315442        90.2178 
 145   0.0000       3.446236        93.7769 
 146   0.0000       3.693511       100.5056 

                    ********************************
                    * MULLIKEN POPULATION ANALYSIS *
                    ********************************

-----------------------
MULLIKEN ATOMIC CHARGES
-----------------------
   0 C :    0.029502
   1 C :    0.023155
   2 C :    0.012397
   3 C :    0.019519
   4 C :   -0.010783
   5 C :    0.026332
   6 O :   -0.144990
   7 H :    0.123866
   8 H :   -0.019149
   9 H :   -0.033594
  10 H :   -0.030615
  11 H :   -0.031943
  12 N :   -0.125449
  13 H :    0.097430
  14 H :    0.064321
Sum of atomic charges:    0.0000000

--------------------------------
MULLIKEN REDUCED ORBITAL CHARGES
--------------------------------
  0 C s       :     3.089697  s :     3.089697
      pz      :     0.999941  p :     2.821776
      px      :     0.891652
      py      :     0.930183
      dz2     :     0.007295  d :     0.059025
      dxz     :     0.006239
      dyz     :     0.012614
      dx2y2   :     0.016109
      dxy     :     0.016768
  1 C s       :     3.104950  s :     3.104950
      pz      :     0.999109  p :     2.807351
      px      :     0.980600
      py      :     0.827642
      dz2     :     0.008642  d :     0.064544
      dxz     :     0.011382
      dyz     :     0.007409
      dx2y2   :     0.022674
      dxy     :     0.014438
  2 C s       :     3.107859  s :     3.107859
      pz      :     0.971649  p :     2.816247
      px      :     0.901675
      py      :     0.942923
      dz2     :     0.004611  d :     0.063496
      dxz     :     0.007698
      dyz     :     0.013658
      dx2y2   :     0.018186
      dxy     :     0.019344
  3 C s       :     3.094499  s :     3.094499
      pz      :     1.015171  p :     2.828161
      px      :     0.886332
      py      :     0.926659
      dz2     :     0.007569  d :     0.057821
      dxz     :     0.005965
      dyz     :     0.011738
      dx2y2   :     0.012313
      dxy     :     0.020237
  4 C s       :     3.085885  s :     3.085885
      pz      :     1.009540  p :     2.815247
      px      :     1.030535
      py      :     0.775171
      dz2     :     0.013218  d :     0.109652
      dxz     :     0.010540
      dyz     :     0.028039
      dx2y2   :     0.030178
      dxy     :     0.027677
  5 C s       :     3.113582  s :     3.113582
      pz      :     0.955577  p :     2.728423
      px      :     0.796130
      py      :     0.976716
      dz2     :     0.018934  d :     0.131662
      dxz     :     0.024244
      dyz     :     0.020368
      dx2y2   :     0.034144
      dxy     :     0.033972
  6 O s       :     3.688570  s :     3.688570
      pz      :     1.692661  p :     4.441914
      px      :     1.524284
      py      :     1.224968
      dz2     :     0.002512  d :     0.014505
      dxz     :     0.003368
      dyz     :     0.000868
      dx2y2   :     0.005503
      dxy     :     0.002254
  7 H s       :     0.791634  s :     0.791634
      pz      :     0.023068  p :     0.084500
      px      :     0.019756
      py      :     0.041676
  8 H s       :     0.990551  s :     0.990551
      pz      :     0.007402  p :     0.028598
      px      :     0.012516
      py      :     0.008680
  9 H s       :     1.004919  s :     1.004919
      pz      :     0.007948  p :     0.028675
      px      :     0.012664
      py      :     0.008063
 10 H s       :     1.002506  s :     1.002506
      pz      :     0.006842  p :     0.028109
      px      :     0.005077
      py      :     0.016191
 11 H s       :     1.003772  s :     1.003772
      pz      :     0.009248  p :     0.028171
      px      :     0.012302
      py      :     0.006622
 12 N s       :     3.330142  s :     3.330142
      pz      :     1.580542  p :     3.776339
      px      :     1.125920
      py      :     1.069877
      dz2     :     0.001528  d :     0.018968
      dxz     :     0.001189
      dyz     :     0.004946
      dx2y2   :     0.003380
      dxy     :     0.007925
 13 H s       :     0.847190  s :     0.847190
      pz      :     0.016439  p :     0.055380
      px      :     0.023443
      py      :     0.015498
 14 H s       :     0.877849  s :     0.877849
      pz      :     0.020574  p :     0.057830
      px      :     0.022539
      py      :     0.014717


                     *******************************
                     * LOEWDIN POPULATION ANALYSIS *
                     *******************************

----------------------
LOEWDIN ATOMIC CHARGES
----------------------
   0 C :   -0.049167
   1 C :   -0.057565
   2 C :   -0.050093
   3 C :   -0.059929
   4 C :   -0.084512
   5 C :   -0.079413
   6 O :    0.080734
   7 H :    0.038463
   8 H :    0.030022
   9 H :    0.020596
  10 H :    0.026338
  11 H :    0.024709
  12 N :    0.057647
  13 H :    0.061623
  14 H :    0.040546

-------------------------------
LOEWDIN REDUCED ORBITAL CHARGES
-------------------------------
  0 C s       :     2.814722  s :     2.814722
      pz      :     1.000294  p :     3.040871
      px      :     1.022240
      py      :     1.018338
      dz2     :     0.021930  d :     0.193574
      dxz     :     0.021295
      dyz     :     0.036901
      dx2y2   :     0.055313
      dxy     :     0.058135
  1 C s       :     2.810947  s :     2.810947
      pz      :     0.992380  p :     3.041781
      px      :     1.037718
      py      :     1.011683
      dz2     :     0.025336  d :     0.204836
      dxz     :     0.036699
      dyz     :     0.021710
      dx2y2   :     0.070327
      dxy     :     0.050765
  2 C s       :     2.816781  s :     2.816781
      pz      :     0.985321  p :     3.034080
      px      :     1.016135
      py      :     1.032623
      dz2     :     0.014033  d :     0.199233
      dxz     :     0.023740
      dyz     :     0.039373
      dx2y2   :     0.059938
      dxy     :     0.062149
  3 C s       :     2.817657  s :     2.817657
      pz      :     1.015461  p :     3.053533
      px      :     1.004165
      py      :     1.033907
      dz2     :     0.021064  d :     0.188739
      dxz     :     0.020795
      dyz     :     0.035404
      dx2y2   :     0.046623
      dxy     :     0.064853
  4 C s       :     2.798715  s :     2.798715
      pz      :     0.997450  p :     2.975872
      px      :     1.051284
      py      :     0.927139
      dz2     :     0.034664  d :     0.309925
      dxz     :     0.032345
      dyz     :     0.074169
      dx2y2   :     0.086870
      dxy     :     0.081876
  5 C s       :     2.810023  s :     2.810023
      pz      :     0.967346  p :     2.924266
      px      :     0.915119
      py      :     1.041800
      dz2     :     0.047354  d :     0.345124
      dxz     :     0.062086
      dyz     :     0.049878
      dx2y2   :     0.095638
      dxy     :     0.090169
  6 O s       :     3.372192  s :     3.372192
      pz      :     1.658824  p :     4.518490
      px      :     1.535233
      py      :     1.324434
      dz2     :     0.004786  d :     0.028583
      dxz     :     0.005607
      dyz     :     0.001619
      dx2y2   :     0.012382
      dxy     :     0.004189
  7 H s       :     0.755270  s :     0.755270
      pz      :     0.055625  p :     0.206268
      px      :     0.048736
      py      :     0.101906
  8 H s       :     0.887119  s :     0.887119
      pz      :     0.021430  p :     0.082859
      px      :     0.035609
      py      :     0.025820
  9 H s       :     0.895980  s :     0.895980
      pz      :     0.022673  p :     0.083424
      px      :     0.036283
      py      :     0.024467
 10 H s       :     0.892189  s :     0.892189
      pz      :     0.019753  p :     0.081474
      px      :     0.016340
      py      :     0.045381
 11 H s       :     0.893748  s :     0.893748
      pz      :     0.025820  p :     0.081543
      px      :     0.035149
      py      :     0.020574
 12 N s       :     2.975672  s :     2.975672
      pz      :     1.535127  p :     3.903826
      px      :     1.235911
      py      :     1.132789
      dz2     :     0.003807  d :     0.062854
      dxz     :     0.005002
      dyz     :     0.013294
      dx2y2   :     0.013672
      dxy     :     0.027080
 13 H s       :     0.796138  s :     0.796138
      pz      :     0.047489  p :     0.142238
      px      :     0.056829
      py      :     0.037920
 14 H s       :     0.812289  s :     0.812289
      pz      :     0.057303  p :     0.147165
      px      :     0.055840
      py      :     0.034022


                      *****************************
                      * MAYER POPULATION ANALYSIS *
                      *****************************

  NA   - Mulliken gross atomic population
  ZA   - Total nuclear charge
  QA   - Mulliken gross atomic charge
  VA   - Mayer's total valence
  BVA  - Mayer's bonded valence
  FA   - Mayer's free valence

  ATOM       NA         ZA         QA         VA         BVA        FA
  0 C      5.9705     6.0000     0.0295     3.9935     3.9935    -0.0000
  1 C      5.9768     6.0000     0.0232     4.0215     4.0215     0.0000
  2 C      5.9876     6.0000     0.0124     4.0373     4.0373    -0.0000
  3 C      5.9805     6.0000     0.0195     3.9241     3.9241     0.0000
  4 C      6.0108     6.0000    -0.0108     4.0358     4.0358    -0.0000
  5 C      5.9737     6.0000     0.0263     4.0920     4.0920     0.0000
  6 O      8.1450     8.0000    -0.1450     2.3562     2.3562    -0.0000
  7 H      0.8761     1.0000     0.1239     1.0649     1.0649    -0.0000
  8 H      1.0191     1.0000    -0.0191     0.9847     0.9847     0.0000
  9 H      1.0336     1.0000    -0.0336     0.9732     0.9732    -0.0000
 10 H      1.0306     1.0000    -0.0306     0.9676     0.9676     0.0000
 11 H      1.0319     1.0000    -0.0319     0.9676     0.9676    -0.0000
 12 N      7.1254     7.0000    -0.1254     3.2576     3.2576     0.0000
 13 H      0.9026     1.0000     0.0974     1.0171     1.0171     0.0000
 14 H      0.9357     1.0000     0.0643     1.0340     1.0340    -0.0000

  Mayer bond orders larger than 0.1
B(  0-C ,  1-C ) :   1.4680 B(  0-C ,  5-C ) :   1.4370 B(  0-C ,  8-H ) :   0.9126 
B(  1-C ,  2-C ) :   1.4595 B(  1-C , 10-H ) :   0.9304 B(  2-C ,  3-C ) :   1.4770 
B(  2-C , 11-H ) :   0.9262 B(  3-C ,  4-C ) :   1.3587 B(  3-C ,  9-H ) :   0.9176 
B(  4-C ,  5-C ) :   1.2369 B(  4-C , 12-N ) :   1.2284 B(  5-C ,  6-O ) :   1.2315 
B(  6-O ,  7-H ) :   1.0083 B( 12-N , 13-H ) :   0.9581 B( 12-N , 14-H ) :   0.9586 


-------
TIMINGS
-------

Total SCF time: 0 days 0 hours 0 min 18 sec 

Total time                  ....      18.098 sec
Sum of individual times     ....      17.843 sec  ( 98.6%)

Fock matrix formation       ....      14.499 sec  ( 80.1%)
  Split-RI-J                ....       6.897 sec  ( 47.6% of F)
  XC integration            ....       7.591 sec  ( 52.4% of F)
    Basis function eval.    ....       4.942 sec  ( 65.1% of XC)
    Density eval.           ....       0.768 sec  ( 10.1% of XC)
    XC-Functional eval.     ....       0.394 sec  (  5.2% of XC)
    XC-Potential eval.      ....       1.389 sec  ( 18.3% of XC)
Diagonalization             ....       0.023 sec  (  0.1%)
Density matrix formation    ....       0.003 sec  (  0.0%)
Population analysis         ....       0.006 sec  (  0.0%)
Initial guess               ....       0.925 sec  (  5.1%)
Orbital Transformation      ....       0.000 sec  (  0.0%)
Orbital Orthonormalization  ....       0.000 sec  (  0.0%)
DIIS solution               ....       0.006 sec  (  0.0%)
SOSCF solution              ....       0.012 sec  (  0.1%)
Grid generation             ....       2.369 sec  ( 13.1%)

-------------------------   --------------------
FINAL SINGLE POINT ENERGY      -362.841679705775
-------------------------   --------------------


                            ***************************************
                            *     ORCA property calculations      *
                            ***************************************

                                    ---------------------
                                    Active property flags
                                    ---------------------
   (+) Dipole Moment
   (+) Chemical Shifts


------------------------------------------------------------------------------
                       ORCA ELECTRIC PROPERTIES CALCULATION
------------------------------------------------------------------------------

Dipole Moment Calculation                       ... on
Quadrupole Moment Calculation                   ... off
Polarizability Calculation                      ... off
GBWName                                         ... /home/jan/SoftwareDevelopment/karminus/output/bp86_ccpvdz/ortho_amino_phenol/ortho_amino_phenol.gbw
Electron density file                           ... /home/jan/SoftwareDevelopment/karminus/output/bp86_ccpvdz/ortho_amino_phenol/ortho_amino_phenol.scfp.tmp

-------------
DIPOLE MOMENT
-------------
                                X             Y             Z
Electronic contribution:     -1.83687       0.12390       0.97251
Nuclear contribution   :      1.97860       1.16144      -0.79391
                        -----------------------------------------
Total Dipole Moment    :      0.14172       1.28534       0.17860
                        -----------------------------------------
Magnitude (a.u.)       :      1.30540
Magnitude (Debye)      :      3.31807

------------------------------------------------------------------------------
                                ORCA EPR/NMR CALCULATION
------------------------------------------------------------------------------

GBWName                      ... /home/jan/SoftwareDevelopment/karminus/output/bp86_ccpvdz/ortho_amino_phenol/ortho_amino_phenol.gbw
Electron density file        ... /home/jan/SoftwareDevelopment/karminus/output/bp86_ccpvdz/ortho_amino_phenol/ortho_amino_phenol.scfp.tmp
Spin density file            ... /home/jan/SoftwareDevelopment/karminus/output/bp86_ccpvdz/ortho_amino_phenol/ortho_amino_phenol.scfr.tmp
Treatment of gauge           ... GIAO (approximations 1/2el = 0,3)
Details of the CP(SCF) procedure:
       Solver   = POPLE   
       MaxIter  =    64   
       Tolerance=    1.000e-06
       Op-0     =   0- 28 =>  29-146
Multiplicity                 ... 1
g-tensor                     ... 0
NMR chemical shifts          ... 1
Number of nuclei for epr/nmr ... 15
   Nucleus:   0C 
       Hyperfine : Isotope=   13 I=   0.500 P= 134.188
       Quadrupole: Isotope=   13 I=   0.500 Q=   0.000
       Spin-Orbit: Zeff=   3.600
       rho(0)=N f(grad)=N a(iso)=N a(dip)=N a(orb)=N sigma(nmr)=Y
   Nucleus:   1C 
       Hyperfine : Isotope=   13 I=   0.500 P= 134.188
       Quadrupole: Isotope=   13 I=   0.500 Q=   0.000
       Spin-Orbit: Zeff=   3.600
       rho(0)=N f(grad)=N a(iso)=N a(dip)=N a(orb)=N sigma(nmr)=Y
   Nucleus:   2C 
       Hyperfine : Isotope=   13 I=   0.500 P= 134.188
       Quadrupole: Isotope=   13 I=   0.500 Q=   0.000
       Spin-Orbit: Zeff=   3.600
       rho(0)=N f(grad)=N a(iso)=N a(dip)=N a(orb)=N sigma(nmr)=Y
   Nucleus:   3C 
       Hyperfine : Isotope=   13 I=   0.500 P= 134.188
       Quadrupole: Isotope=   13 I=   0.500 Q=   0.000
       Spin-Orbit: Zeff=   3.600
       rho(0)=N f(grad)=N a(iso)=N a(dip)=N a(orb)=N sigma(nmr)=Y
   Nucleus:   4C 
       Hyperfine : Isotope=   13 I=   0.500 P= 134.188
       Quadrupole: Isotope=   13 I=   0.500 Q=   0.000
       Spin-Orbit: Zeff=   3.600
       rho(0)=N f(grad)=N a(iso)=N a(dip)=N a(orb)=N sigma(nmr)=Y
   Nucleus:   5C 
       Hyperfine : Isotope=   13 I=   0.500 P= 134.188
       Quadrupole: Isotope=   13 I=   0.500 Q=   0.000
       Spin-Orbit: Zeff=   3.600
       rho(0)=N f(grad)=N a(iso)=N a(dip)=N a(orb)=N sigma(nmr)=Y
   Nucleus:   6O 
       Hyperfine : Isotope=   17 I=   2.500 P= -72.357
       Quadrupole: Isotope=   17 I=   2.500 Q=  -0.026
       Spin-Orbit: Zeff=   5.600
       rho(0)=N f(grad)=N a(iso)=N a(dip)=N a(orb)=N sigma(nmr)=Y
   Nucleus:   7H 
       Hyperfine : Isotope=    1 I=   0.500 P= 533.552
       Quadrupole: Isotope=    2 I=   1.000 Q=   0.003
       Spin-Orbit: Zeff=   1.000
       rho(0)=N f(grad)=N a(iso)=N a(dip)=N a(orb)=N sigma(nmr)=Y
   Nucleus:   8H 
       Hyperfine : Isotope=    1 I=   0.500 P= 533.552
       Quadrupole: Isotope=    2 I=   1.000 Q=   0.003
       Spin-Orbit: Zeff=   1.000
       rho(0)=N f(grad)=N a(iso)=N a(dip)=N a(orb)=N sigma(nmr)=Y
   Nucleus:   9H 
       Hyperfine : Isotope=    1 I=   0.500 P= 533.552
       Quadrupole: Isotope=    2 I=   1.000 Q=   0.003
       Spin-Orbit: Zeff=   1.000
       rho(0)=N f(grad)=N a(iso)=N a(dip)=N a(orb)=N sigma(nmr)=Y
   Nucleus:  10H 
       Hyperfine : Isotope=    1 I=   0.500 P= 533.552
       Quadrupole: Isotope=    2 I=   1.000 Q=   0.003
       Spin-Orbit: Zeff=   1.000
       rho(0)=N f(grad)=N a(iso)=N a(dip)=N a(orb)=N sigma(nmr)=Y
   Nucleus:  11H 
       Hyperfine : Isotope=    1 I=   0.500 P= 533.552
       Quadrupole: Isotope=    2 I=   1.000 Q=   0.003
       Spin-Orbit: Zeff=   1.000
       rho(0)=N f(grad)=N a(iso)=N a(dip)=N a(orb)=N sigma(nmr)=Y
   Nucleus:  12N 
       Hyperfine : Isotope=   14 I=   1.000 P=  38.571
       Quadrupole: Isotope=   14 I=   1.000 Q=   0.020
       Spin-Orbit: Zeff=   4.550
       rho(0)=N f(grad)=N a(iso)=N a(dip)=N a(orb)=N sigma(nmr)=Y
   Nucleus:  13H 
       Hyperfine : Isotope=    1 I=   0.500 P= 533.552
       Quadrupole: Isotope=    2 I=   1.000 Q=   0.003
       Spin-Orbit: Zeff=   1.000
       rho(0)=N f(grad)=N a(iso)=N a(dip)=N a(orb)=N sigma(nmr)=Y
   Nucleus:  14H 
       Hyperfine : Isotope=    1 I=   0.500 P= 533.552
       Quadrupole: Isotope=    2 I=   1.000 Q=   0.003
       Spin-Orbit: Zeff=   1.000
       rho(0)=N f(grad)=N a(iso)=N a(dip)=N a(orb)=N sigma(nmr)=Y
Using LibInt in CPSCF-CP

Forming RHS of the CP-SCF equations         ... 
Calculating right hand sides for GIAO treatment (new)  ... 
  Entering RightHandSide GIAO. ScalHFX=    0.0000 NeedHFX=0
     -> 1-electron GIAO integrals will be done analytically
     -> RI used in SCF and no Fock exchange. RIJK enforced by the user
     Making grid for GIAO integrations   ... done
     Test of existence of the V matrix   = 1
     Test of existence of the VCD matrix = 1
     Test of existence of the VO matrix  = 0
     Warning: RI is turned on for GIAO but the V matrix or its Cholesky decomposition are not found - making it
     Calculating V           ... done
     Cholesky decomposition  ... done
     Storing V and VCD       ... done
     Cholesky decomposition-2... done
     Storing VO              ... done
  Getting the pre-screening matrix        ... done
  Extracting occupied and virtual blocks  ... 
  Operator  0  NO=  29 NV= 118 
  One-electron GIAO integrals             ...   done
  Transforming and RHS contribution       ...   done
  Calculating F[B](P)                     ...  (RI-JK)
---------------------
RI-GIAO-TRANSFORMATION (AUX index driven)
----------------------

Dimension of the orbital-basis         ... 147
Dimension of the aux-basis             ... 469
Number of (i,a) MOs                    ... 29,118
Number of ij,ia,ab pairs               ... 841,3422,13924
Transformation of internal MOs         ...    0-  28
Transformation of internal/external MOs...    0-  28 to   29- 146

Mapping shells                                 ... done
Making shell addresses                         ... done
Figuring out significant basis function pairs  ... done
  N(Pairs)         ... 10878
  N(Strong pairs)  ... 10570
  Mem-Available    ... 1024 MB
  (p,q) per batch  ... 35766
  N(Batches)       ... 1
Preparing matrix containers                    ... done
Preparing AO buffer                            ... done
Calculating AO integrals and transforming AUX  ... done
Finished RI-GIAO integral generation and aux-index transformation in  6.282 sec
Mapping the MO pairs                            ... done
Getting memory                                  ... done
Second Phase: sorting and transformation of MO indices
Memory available                       ... 1024 MB 
Max. # Aux fcns treated in a batch     ... 469    
Initializing the MO transformation process      ... done
Batch   0: Q=   0 ...  468
   Reading      ... done
   Transforming ... done
Finished transformation of the MO indices in  1.858 sec
Initializing the sorting process                ... done

IJ-Resorting
# of internal pairs                    ... 841
# batches for internal pairs           ... 1
   (0) Reading      ... done
   (0) Writing      ... done
   (1) Reading      ... done
   (1) Writing      ... done
   (2) Reading      ... done
   (2) Writing      ... done
   (3) Reading      ... done
   (3) Writing      ... done
(ij|v) resorting done in     0.061 sec

IA-Resorting
# of internal orbitals                 ... 29
# batches for internal orbitals        ... 1
   (0) Reading      ... done
   (0) Writing      ... done
   (1) Reading      ... done
   (1) Writing      ... done
   (2) Reading      ... done
   (2) Writing      ... done
   (3) Reading      ... done
   (3) Writing      ... done
(ia|v) resorting done in     0.055 sec

  Resorting completed in     0.117 sec
RI-GIAO-Integral transformation completed in     8.304 sec
Reading RI-integrals ... done
Doing RI-JK          ... done
 => dG/dB done
  RI-JK GIAO contributions                ...   done
  DFT XC-terms                            ... done
  Transforming to MO basis/RHS contribs.  ... done
  GIAO profiling information: 
    Total GIAO time               ...      17.9 sec
       Grid setup                 ...       0.5 sec (  2.6%)
       RI-V-matrix setup          ...       0.1 sec (  0.3%)
       GIAO 1-electron integrals  ...       0.0 sec (  0.2%)
       GIAO RI-JK                 ...       7.5 sec ( 41.6%)
       GIAO RI integral trafo     ...       8.3 sec ( 46.3%)
       GIAO XC-terms              ...       1.6 sec (  8.9%)
       Right hand side assembly   ...       0.0 sec (  0.0%)

  GIAO right hand side done


Forming final perturbed densities           ... done
Transforming perturbed density to AO basis  ...  done

Magnetic field perturbation calculated in 18.027 sec

---------------
CHEMICAL SHIFTS
---------------

Note: using conversion factor for au to ppm alpha^2/2 =   26.625677252 
Doing GIAO para- and diamagnetic shielding integrals analytically     ...done
Doing remaining GIAO terms numerically                                ...done
 --------------
 Nucleus   0C :
 --------------

Diamagnetic contribution to the shielding tensor (ppm) : 
           252.393         -0.467       -22.490
             2.876        262.705         9.026
           -23.066          8.769       222.693

Paramagnetic contribution to the shielding tensor (ppm): 
          -199.924        -36.804        75.484
           -41.272       -212.047       -12.424
            75.797        -12.729       -81.371

Total shielding tensor (ppm): 
            52.469        -37.270        52.994
           -38.395         50.658        -3.398
            52.730         -3.961       141.323


 Diagonalized sT*s matrix:
 
 sDSO           261.419          267.317          209.055  iso=     245.930
 sPSO          -257.623         -195.969          -39.749  iso=    -164.447
        ---------------  ---------------  ---------------
 Total            3.796           71.348          169.305  iso=      81.483

 --------------
 Nucleus   1C :
 --------------

Diamagnetic contribution to the shielding tensor (ppm) : 
           268.057         -2.508        11.047
            -1.037        263.649        -4.761
             8.387         -3.641       285.369

Paramagnetic contribution to the shielding tensor (ppm): 
          -175.013         -1.839        30.960
            -4.459       -272.555       -28.629
            33.169        -30.555      -137.334

Total shielding tensor (ppm): 
            93.044         -4.347        42.007
            -5.496         -8.906       -33.389
            41.555        -34.196       148.035


 Diagonalized sT*s matrix:
 
 sDSO           262.868          263.783          290.424  iso=     272.358
 sPSO          -278.858         -191.776         -114.267  iso=    -194.967
        ---------------  ---------------  ---------------
 Total          -15.990           72.007          176.157  iso=      77.391

 --------------
 Nucleus   2C :
 --------------

Diamagnetic contribution to the shielding tensor (ppm) : 
           282.951         -7.473        32.292
            -7.274        267.550       -12.161
            40.336        -14.642       324.555

Paramagnetic contribution to the shielding tensor (ppm): 
          -241.531         26.060        40.815
            30.663       -212.840       -23.766
            33.757        -19.077      -193.771

Total shielding tensor (ppm): 
            41.420         18.587        73.107
            23.389         54.710       -35.927
            74.093        -33.719       130.783


 Diagonalized sT*s matrix:
 
 sDSO           262.472          264.290          348.294  iso=     291.685
 sPSO          -280.012         -195.570         -172.560  iso=    -216.047
        ---------------  ---------------  ---------------
 Total          -17.540           68.720          175.734  iso=      75.638

 --------------
 Nucleus   3C :
 --------------

Diamagnetic contribution to the shielding tensor (ppm) : 
           287.357        -12.552        47.411
           -10.386        269.414       -17.156
            43.524        -18.133       357.868

Paramagnetic contribution to the shielding tensor (ppm): 
          -234.138        -22.520         4.513
           -25.397       -209.888        14.608
             7.921         15.681      -217.709

Total shielding tensor (ppm): 
            53.219        -35.073        51.924
           -35.783         59.526        -2.548
            51.445         -2.451       140.160


 Diagonalized sT*s matrix:
 
 sDSO           262.988          267.732          383.919  iso=     304.880
 sPSO          -253.770         -191.216         -216.749  iso=    -220.578
        ---------------  ---------------  ---------------
 Total            9.219           76.516          167.170  iso=      84.301

 --------------
 Nucleus   4C :
 --------------

Diamagnetic contribution to the shielding tensor (ppm) : 
           271.993         -6.421        18.520
            -4.896        270.579        -5.313
            14.722         -8.908       300.987

Paramagnetic contribution to the shielding tensor (ppm): 
          -204.221         -1.902        24.065
           -11.255       -257.849       -14.019
            26.227        -14.589      -173.358

Total shielding tensor (ppm): 
            67.772         -8.324        42.585
           -16.151         12.729       -19.332
            40.949        -23.497       127.630


 Diagonalized sT*s matrix:
 
 sDSO           268.889          264.328          310.342  iso=     281.186
 sPSO          -260.254         -218.232         -156.942  iso=    -211.809
        ---------------  ---------------  ---------------
 Total            8.635           46.097          153.400  iso=      69.377

 --------------
 Nucleus   5C :
 --------------

Diamagnetic contribution to the shielding tensor (ppm) : 
           253.894          6.991       -23.528
             6.415        260.103         7.338
           -27.310          9.244       221.696

Paramagnetic contribution to the shielding tensor (ppm): 
          -224.386        -13.558        72.507
            -3.576       -219.325       -25.617
            78.324        -22.663      -123.834

Total shielding tensor (ppm): 
            29.508         -6.567        48.979
             2.840         40.778       -18.279
            51.015        -13.419        97.863


 Diagonalized sT*s matrix:
 
 sDSO           266.394          263.544          205.756  iso=     245.231
 sPSO          -263.573         -225.047          -78.925  iso=    -189.182
        ---------------  ---------------  ---------------
 Total            2.821           38.497          126.831  iso=      56.050

 --------------
 Nucleus   6O :
 --------------

Diamagnetic contribution to the shielding tensor (ppm) : 
           335.898         10.234      -106.981
             8.654        394.311        48.515
          -112.540         40.155       191.027

Paramagnetic contribution to the shielding tensor (ppm): 
          -104.372        -23.998       136.042
           -40.401       -189.858       -49.678
           138.233        -50.170        87.095

Total shielding tensor (ppm): 
           231.526        -13.764        29.061
           -31.747        204.453        -1.163
            25.693        -10.015       278.122


 Diagonalized sT*s matrix:
 
 sDSO           388.648          407.620          124.968  iso=     307.079
 sPSO          -198.123         -177.350          168.339  iso=     -69.045
        ---------------  ---------------  ---------------
 Total          190.525          230.270          293.306  iso=     238.034

 --------------
 Nucleus   7H :
 --------------

Diamagnetic contribution to the shielding tensor (ppm) : 
             9.869          6.591       -41.382
             6.754         41.554        18.999
           -42.242         17.884       -47.302

Paramagnetic contribution to the shielding tensor (ppm): 
            19.627         -6.400        36.103
            -5.276         -5.149       -16.366
            37.208        -14.614        69.761

Total shielding tensor (ppm): 
            29.496          0.191        -5.280
             1.477         36.404         2.633
            -5.035          3.269        22.459


 Diagonalized sT*s matrix:
 
 sDSO           -72.667           31.483           45.305  iso=       1.374
 sPSO            91.877            0.655           -8.294  iso=      28.079
        ---------------  ---------------  ---------------
 Total           19.210           32.139           37.010  iso=      29.453

 --------------
 Nucleus   8H :
 --------------

Diamagnetic contribution to the shielding tensor (ppm) : 
            13.336         15.052       -46.870
            15.190         31.495        14.691
           -46.948         13.871       -56.167

Paramagnetic contribution to the shielding tensor (ppm): 
            11.158        -16.145        45.223
           -16.177         -4.490       -13.133
            45.285        -12.224        79.044

Total shielding tensor (ppm): 
            24.494         -1.093        -1.647
            -0.987         27.005         1.558
            -1.663          1.647        22.877


 Diagonalized sT*s matrix:
 
 sDSO           -83.138           42.619           29.183  iso=      -3.779
 sPSO           104.838          -18.162           -0.963  iso=      28.571
        ---------------  ---------------  ---------------
 Total           21.699           24.457           28.220  iso=      24.792

 --------------
 Nucleus   9H :
 --------------

Diamagnetic contribution to the shielding tensor (ppm) : 
            67.737         -5.999        54.778
            -5.773         37.558       -24.209
            53.209        -23.501       143.914

Paramagnetic contribution to the shielding tensor (ppm): 
           -42.485          4.923       -56.767
             4.212        -10.186        26.118
           -55.315         25.071      -120.720

Total shielding tensor (ppm): 
            25.252         -1.076        -1.989
            -1.560         27.373         1.909
            -2.106          1.571        23.194


 Diagonalized sT*s matrix:
 
 sDSO           176.016           42.864           30.329  iso=      83.070
 sPSO          -154.217          -17.921           -1.253  iso=     -57.797
        ---------------  ---------------  ---------------
 Total           21.799           24.944           29.077  iso=      25.273

 --------------
 Nucleus  10H :
 --------------

Diamagnetic contribution to the shielding tensor (ppm) : 
            35.284         -3.395        14.655
            -3.337         43.866        -2.429
            14.740         -2.379        56.857

Paramagnetic contribution to the shielding tensor (ppm): 
            -9.110          3.816       -16.599
             3.592        -18.709         2.862
           -16.638          2.764       -33.556

Total shielding tensor (ppm): 
            26.174          0.422        -1.944
             0.256         25.157         0.433
            -1.898          0.385        23.302


 Diagonalized sT*s matrix:
 
 sDSO            64.939           43.407           27.661  iso=      45.336
 sPSO           -42.692          -18.166           -0.517  iso=     -20.458
        ---------------  ---------------  ---------------
 Total           22.247           25.241           27.144  iso=      24.877

 --------------
 Nucleus  11H :
 --------------

Diamagnetic contribution to the shielding tensor (ppm) : 
            67.438        -16.289        51.148
           -16.351         34.992       -18.631
            52.951        -17.932       141.665

Paramagnetic contribution to the shielding tensor (ppm): 
           -42.385         17.139       -52.558
            17.813         -8.161        18.818
           -54.256         18.487      -118.871

Total shielding tensor (ppm): 
            25.053          0.850        -1.410
             1.462         26.831         0.186
            -1.305          0.555        22.794


 Diagonalized sT*s matrix:
 
 sDSO           172.572           43.507           28.016  iso=      81.365
 sPSO          -150.563          -18.256           -0.598  iso=     -56.472
        ---------------  ---------------  ---------------
 Total           22.009           25.251           27.418  iso=      24.893

 --------------
 Nucleus  12N :
 --------------

Diamagnetic contribution to the shielding tensor (ppm) : 
           298.070          9.035       -50.833
             9.118        328.653        21.349
           -45.581         20.961       223.982

Paramagnetic contribution to the shielding tensor (ppm): 
          -102.728        -13.056        53.628
            -9.370        -82.706       -12.544
            49.028        -10.429       -21.529

Total shielding tensor (ppm): 
           195.343         -4.021         2.795
            -0.252        245.947         8.805
             3.447         10.532       202.453


 Diagonalized sT*s matrix:
 
 sDSO           321.638          196.295          332.772  iso=     283.568
 sPSO          -128.111            5.882          -84.734  iso=     -68.988
        ---------------  ---------------  ---------------
 Total          193.527          202.177          248.038  iso=     214.581

 --------------
 Nucleus  13H :
 --------------

Diamagnetic contribution to the shielding tensor (ppm) : 
            44.481          2.927        14.533
             3.977         37.813        -8.664
            15.717         -9.223        61.553

Paramagnetic contribution to the shielding tensor (ppm): 
           -13.990          0.308       -18.399
             2.645         -6.123         7.188
           -18.936          9.446       -38.082

Total shielding tensor (ppm): 
            30.490          3.235        -3.866
             6.621         31.690        -1.476
            -3.218          0.223        23.471


 Diagonalized sT*s matrix:
 
 sDSO            71.482           28.844           43.520  iso=      47.949
 sPSO           -49.714           -1.630           -6.851  iso=     -19.398
        ---------------  ---------------  ---------------
 Total           21.768           27.214           36.669  iso=      28.550

 --------------
 Nucleus  14H :
 --------------

Diamagnetic contribution to the shielding tensor (ppm) : 
            21.827          0.879       -32.389
            -0.170         33.185        14.731
           -31.382         15.004       -21.951

Paramagnetic contribution to the shielding tensor (ppm): 
             8.597         -1.257        27.646
            -3.373         -0.161       -10.614
            26.000        -12.549        46.610

Total shielding tensor (ppm): 
            30.423         -0.378        -4.743
            -3.543         33.023         4.117
            -5.382          2.455        24.658


 Diagonalized sT*s matrix:
 
 sDSO           -41.135           30.515           43.680  iso=      11.020
 sPSO            62.528           -0.455           -7.028  iso=      18.348
        ---------------  ---------------  ---------------
 Total           21.393           30.060           36.652  iso=      29.368



--------------------------
CHEMICAL SHIELDING SUMMARY (ppm)
--------------------------


  Nucleus  Element    Isotropic     Anisotropy
  -------  -------  ------------   ------------
      0       C           81.483        131.733 
      1       C           77.391        148.149 
      2       C           75.638        150.144 
      3       C           84.301        124.303 
      4       C           69.377        126.034 
      5       C           56.050        106.172 
      6       O          238.034         82.909 
      7       H           29.453         11.336 
      8       H           24.792          5.142 
      9       H           25.273          5.705 
     10       H           24.877          3.399 
     11       H           24.893          3.788 
     12       N          214.581         50.185 
     13       H           28.550         12.179 
     14       H           29.368         10.925 



Timings for individual modules:

Sum of individual times         ...       69.820 sec (=   1.164 min)
GTO integral calculation        ...        0.282 sec (=   0.005 min)   0.4 %
SCF iterations                  ...       18.112 sec (=   0.302 min)  25.9 %
SCF-level EPR/NMR calculation   ...       51.427 sec (=   0.857 min)  73.7 %
                             ****ORCA TERMINATED NORMALLY****
TOTAL RUN TIME: 0 days 0 hours 1 minutes 9 seconds 946 msec
