
                                 *****************
                                 * O   R   C   A *
                                 *****************

           --- An Ab Initio, DFT and Semiempirical electronic structure package ---

                  #######################################################
                  #                        -***-                        #
                  #  Department of molecular theory and spectroscopy    #
                  #              Directorship: Frank Neese              #
                  # Max Planck Institute for Chemical Energy Conversion #
                  #                  D-45470 Muelheim/Ruhr              #
                  #                       Germany                       #
                  #                                                     #
                  #                  All rights reserved                #
                  #                        -***-                        #
                  #######################################################


                         Program Version 4.0.0.2 - RELEASE -


 With contributions from (in alphabetic order):
   Daniel Aravena         : Magnetic Properties
   Michael Atanasov       : Ab Initio Ligand Field Theory
   Ute Becker             : Parallelization
   Martin Brehm           : Molecular dynamics
   Dmytro Bykov           : SCF Hessian
   Vijay G. Chilkuri      : MRCI spin determinant printing
   Dipayan Datta          : RHF DLPNO-CCSD density
   Achintya Kumar Dutta   : EOM-CC, STEOM-CC
   Dmitry Ganyushin       : Spin-Orbit,Spin-Spin,Magnetic field MRCI
   Yang Guo               : DLPNO-NEVPT2, CIM, IAO-localization
   Andreas Hansen         : Spin unrestricted coupled pair/coupled cluster methods
   Lee Huntington         : MR-EOM, pCC
   Robert Izsak           : Overlap fitted RIJCOSX, COSX-SCS-MP3, EOM
   Christian Kollmar      : KDIIS, OOCD, Brueckner-CCSD(T), CCSD density
   Simone Kossmann        : Meta GGA functionals, TD-DFT gradient, OOMP2, MP2 Hessian
   Martin Krupicka        : AUTO-CI
   Dagmar Lenk            : GEPOL surface
   Dimitrios Liakos       : Extrapolation schemes; parallel MDCI
   Dimitrios Manganas     : ROCIS; embedding schemes
   Dimitrios Pantazis     : SARC Basis sets
   Taras Petrenko         : DFT Hessian,TD-DFT gradient, ASA, ECA, R-Raman, ABS, FL, XAS/XES, NRVS
   Peter Pinski           : DLPNO-MP2
   Christoph Reimann      : Effective Core Potentials
   Marius Retegan         : Local ZFS, SOC
   Christoph Riplinger    : Optimizer, TS searches, QM/MM, DLPNO-CCSD(T), (RO)-DLPNO pert. Triples
   Tobias Risthaus        : Range-separated hybrids, TD-DFT gradient, RPA, STAB
   Michael Roemelt        : Restricted open shell CIS
   Masaaki Saitow         : Open-shell DLPNO
   Barbara Sandhoefer     : DKH picture change effects
   Kantharuban Sivalingam : CASSCF convergence, NEVPT2, FIC-MRCI
   Georgi Stoychev        : AutoAux
   Boris Wezisla          : Elementary symmetry handling
   Frank Wennmohs         : Technical directorship


 We gratefully acknowledge several colleagues who have allowed us to
 interface, adapt or use parts of their codes:
   Stefan Grimme, W. Hujo, H. Kruse,             : VdW corrections, initial TS optimization,
                  C. Bannwarth                     DFT functionals, gCP, sTDA/sTD-DF
   Ed Valeev                                     : LibInt (2-el integral package), F12 methods
   Garnet Chan, S. Sharma, J. Yang, R. Olivares  : DMRG
   Ulf Ekstrom                                   : XCFun DFT Library
   Mihaly Kallay                                 : mrcc  (arbitrary order and MRCC methods)
   Jiri Pittner, Ondrej Demel                    : Mk-CCSD
   Frank Weinhold                                : gennbo (NPA and NBO analysis)
   Christopher J. Cramer and Donald G. Truhlar   : smd solvation model


 Your calculation uses the libint2 library for the computation of 2-el integrals
 For citations please refer to: http://libint.valeyev.net

 This ORCA versions uses:
   CBLAS   interface :  Fast vector & matrix operations
   LAPACKE interface :  Fast linear algebra routines
   SCALAPACK package :  Parallel linear algebra routines




*****************************************
The coordinations will be read from file: guess.xyz
*****************************************



Information: The global flag for chemical shieldings has been found
             ==>> will calculate the chemical shifts for all atoms in the system

Your calculation utilizes the basis: cc-pVDZ 
       H, B-Ne : Obtained from the ccRepo (grant-hill.group.shef.ac.uk/ccrepo) Feb. 2017
                 T. H. Dunning, Jr., J. Chem. Phys. 90, 1007 (1989)
            He : Obtained from the ccRepo (grant-hill.group.shef.ac.uk/ccrepo) Feb. 2017
                 D. E. Woon, T. H. Dunning, Jr., J. Chem. Phys. 100, 2975 (1994)
  Li-Be, Na-Mg : Obtained from the ccRepo (grant-hill.group.shef.ac.uk/ccrepo) Feb. 2017
                 B. P. Prascher, D. E. Woon, K. A. Peterson, T. H. Dunning, Jr., A. K. Wilson, Theor. Chem. Acc. 128, 69 (2011)
         Al-Ar : Obtained from the ccRepo (grant-hill.group.shef.ac.uk/ccrepo) Feb. 2017
                 D. E. Woon, T. H. Dunning, Jr., J. Chem. Phys. 98, 1358 (1993)
            Ca : Obtained from the Peterson Research Group Website (tyr0.chem.wsu.edu/~kipeters) Feb. 2017
                 J. Koput, K. A. Peterson, J. Phys. Chem. 106, 9595 (2002)
         Sc-Zn : Obtained from the ccRepo (grant-hill.group.shef.ac.uk/ccrepo) Feb. 2017
                 N. B. Balabanov, K. A. Peterson, J. Chem. Phys. 123, 064107 (2005)
                 N. B. Balabanov, K. A. Peterson, J. Chem. Phys. 125, 074110 (2006)
         Ga-Kr : Obtained from the ccRepo (grant-hill.group.shef.ac.uk/ccrepo) Feb. 2017
                 A. K. Wilson, D. E. Woon, K. A. Peterson, T. H. Dunning, Jr., J. Chem. Phys. 110, 7667 (1999)

Your calculation utilizes the auxiliary basis: def2/J
   F. Weigend, Phys. Chem. Chem. Phys. 8, 1057 (2006).

================================================================================
                                        WARNINGS
                       Please study these warnings very carefully!
================================================================================

Warning: TCutStore was < 0. Adjusted to Thresh (uncritical)

INFO   : the flag for use of LIBINT has been found!

CheckInput: checking for shifts: .
================================================================================
                                       INPUT FILE
================================================================================
NAME = /home/jan/SoftwareDevelopment/karminus/output/bp86_ccpvdz/acrylonitrile/acrylonitrile.in
|  1> !cc-pvdz BP86 NMR
|  2> 
|  3> *xyzfile 0 1 guess.xyz
|  4> 
|  5> 
|  6>                          ****END OF INPUT****
================================================================================

                       ****************************
                       * Single Point Calculation *
                       ****************************

---------------------------------
CARTESIAN COORDINATES (ANGSTROEM)
---------------------------------
  C     -4.942800    4.814740   -0.045420
  C     -5.903350    3.947980    0.298960
  H     -4.970490    5.841600    0.305710
  H     -4.110270    4.525380   -0.681470
  C     -5.904300    2.595700   -0.139080
  H     -6.723290    4.262630    0.935010
  N     -5.909270    1.491710   -0.493960

----------------------------
CARTESIAN COORDINATES (A.U.)
----------------------------
  NO LB      ZA    FRAG     MASS         X           Y           Z
   0 C     6.0000    0    12.011   -9.340538    9.098540   -0.085831
   1 C     6.0000    0    12.011  -11.155715    7.460601    0.564953
   2 H     1.0000    0     1.008   -9.392865   11.039024    0.577708
   3 H     1.0000    0     1.008   -7.767285    8.551729   -1.287792
   4 C     6.0000    0    12.011  -11.157510    4.905162   -0.262823
   5 H     1.0000    0     1.008  -12.705177    8.055203    1.766913
   6 N     7.0000    0    14.007  -11.166902    2.818923   -0.933449

--------------------------------
INTERNAL COORDINATES (ANGSTROEM)
--------------------------------
 C      0   0   0     0.000000000000     0.00000000     0.00000000
 C      1   0   0     1.338852786717     0.00000000     0.00000000
 H      1   2   0     1.085587616271   120.72186515     0.00000000
 H      1   2   3     1.086919966235   121.85024229   180.00069331
 C      2   1   3     1.421457400874   122.48628306   179.99999218
 H      2   1   3     1.084373472840   120.36532752     0.00000000
 N      5   2   1     1.159637199903   179.75617117   179.99428552

---------------------------
INTERNAL COORDINATES (A.U.)
---------------------------
 C      0   0   0     0.000000000000     0.00000000     0.00000000
 C      1   0   0     2.530065100532     0.00000000     0.00000000
 H      1   2   0     2.051463289128   120.72186515     0.00000000
 H      1   2   3     2.053981065675   121.85024229   180.00069331
 C      2   1   3     2.686165198688   122.48628306   179.99999218
 H      2   1   3     2.049168890557   120.36532752     0.00000000
 N      5   2   1     2.191396722525   179.75617117   179.99428552

---------------------
BASIS SET INFORMATION
---------------------
There are 3 groups of distinct atoms

 Group   1 Type C   : 17s4p1d contracted to 3s2p1d pattern {881/31/1}
 Group   2 Type H   : 4s1p contracted to 2s1p pattern {31/1}
 Group   3 Type N   : 17s4p1d contracted to 3s2p1d pattern {881/31/1}

Atom   0C    basis set group =>   1
Atom   1C    basis set group =>   1
Atom   2H    basis set group =>   2
Atom   3H    basis set group =>   2
Atom   4C    basis set group =>   1
Atom   5H    basis set group =>   2
Atom   6N    basis set group =>   3
-------------------------------
AUXILIARY BASIS SET INFORMATION
-------------------------------
There are 3 groups of distinct atoms

 Group   1 Type C   : 12s5p4d2f1g contracted to 6s4p3d1f1g pattern {711111/2111/211/2/1}
 Group   2 Type H   : 5s2p1d contracted to 3s1p1d pattern {311/2/1}
 Group   3 Type N   : 12s5p4d2f1g contracted to 6s4p3d1f1g pattern {711111/2111/211/2/1}

Atom   0C    basis set group =>   1
Atom   1C    basis set group =>   1
Atom   2H    basis set group =>   2
Atom   3H    basis set group =>   2
Atom   4C    basis set group =>   1
Atom   5H    basis set group =>   2
Atom   6N    basis set group =>   3
------------------------------------------------------------------------------
                           ORCA GTO INTEGRAL CALCULATION
                           -- RI-GTO INTEGRALS CHOSEN --
------------------------------------------------------------------------------

                         BASIS SET STATISTICS AND STARTUP INFO

Gaussian basis set:
 # of primitive gaussian shells          ...  103
 # of primitive gaussian functions       ...  157
 # of contracted shells                  ...   33
 # of contracted basis functions         ...   71
 Highest angular momentum                ...    2
 Maximum contraction depth               ...    8
Auxiliary gaussian basis set:
 # of primitive gaussian shells          ...  120
 # of primitive gaussian functions       ...  328
 # of contracted shells                  ...   75
 # of contracted aux-basis functions     ...  229
 Highest angular momentum                ...    4
 Maximum contraction depth               ...    7
Ratio of auxiliary to basis functions    ...  3.23
Integral package used                  ... LIBINT
 One Electron integrals                  ... done
 Ordering auxiliary basis shells         ... done
 Integral threshhold             Thresh  ...  1.000e-10
 Primitive cut-off               TCut    ...  1.000e-11
 Pre-screening matrix                    ... done
 Shell pair data                         ... 
 Ordering of the shell pairs             ... done (   0.000 sec) 560 of 561 pairs
 Determination of significant pairs      ... done (   0.000 sec)
 Creation of shell pair data             ... done (   0.001 sec)
 Storage of shell pair data              ... done (   0.000 sec)
 Shell pair data done in (   0.001 sec)
 Computing two index integrals           ... done
 Cholesky decomposition of the V-matrix  ... done


Timings:
 Total evaluation time                   ...   0.159 sec (  0.003 min)
 One electron matrix time                ...   0.005 sec (  0.000 min) =  3.3%
 Schwartz matrix evaluation time         ...   0.132 sec (  0.002 min) = 82.9%
 Two index repulsion integral time       ...   0.001 sec (  0.000 min) =  0.8%
 Cholesky decomposition of V             ...   0.001 sec (  0.000 min) =  0.4%
 Three index repulsion integral time     ...   0.000 sec (  0.000 min) =  0.0%

-------------------------------------------------------------------------------
                                 ORCA SCF
-------------------------------------------------------------------------------

------------
SCF SETTINGS
------------
Hamiltonian:
 Density Functional     Method          .... DFT(GTOs)
 Exchange Functional    Exchange        .... B88
   X-Alpha parameter    XAlpha          ....  0.666667
   Becke's b parameter  XBeta           ....  0.004200
 Correlation Functional Correlation     .... P86
 LDA part of GGA corr.  LDAOpt          .... PW91-LDA
 Gradients option       PostSCFGGA      .... off
 RI-approximation to the Coulomb term is turned on
   Number of auxiliary basis functions  .... 229


General Settings:
 Integral files         IntName         .... /home/jan/SoftwareDevelopment/karminus/output/bp86_ccpvdz/acrylonitrile/acrylonitrile
 Hartree-Fock type      HFTyp           .... RHF
 Total Charge           Charge          ....    0
 Multiplicity           Mult            ....    1
 Number of Electrons    NEL             ....   28
 Basis Dimension        Dim             ....   71
 Nuclear Repulsion      ENuc            ....     90.2117391130 Eh

Convergence Acceleration:
 DIIS                   CNVDIIS         .... on
   Start iteration      DIISMaxIt       ....    12
   Startup error        DIISStart       ....  0.200000
   # of expansion vecs  DIISMaxEq       ....     5
   Bias factor          DIISBfac        ....   1.050
   Max. coefficient     DIISMaxC        ....  10.000
 Newton-Raphson         CNVNR           .... off
 SOSCF                  CNVSOSCF        .... on
   Start iteration      SOSCFMaxIt      ....   150
   Startup grad/error   SOSCFStart      ....  0.003300
 Level Shifting         CNVShift        .... on
   Level shift para.    LevelShift      ....    0.2500
   Turn off err/grad.   ShiftErr        ....    0.0010
 Zerner damping         CNVZerner       .... off
 Static damping         CNVDamp         .... on
   Fraction old density DampFac         ....    0.7000
   Max. Damping (<1)    DampMax         ....    0.9800
   Min. Damping (>=0)   DampMin         ....    0.0000
   Turn off err/grad.   DampErr         ....    0.1000
 Fernandez-Rico         CNVRico         .... off

SCF Procedure:
 Maximum # iterations   MaxIter         ....   125
 SCF integral mode      SCFMode         .... Direct
   Integral package                     .... LIBINT
 Reset frequeny         DirectResetFreq ....    20
 Integral Threshold     Thresh          ....  1.000e-10 Eh
 Primitive CutOff       TCut            ....  1.000e-11 Eh

Convergence Tolerance:
 Convergence Check Mode ConvCheckMode   .... Total+1el-Energy
 Convergence forced     ConvForced      .... 0
 Energy Change          TolE            ....  1.000e-06 Eh
 1-El. energy change                    ....  1.000e-03 Eh
 Orbital Gradient       TolG            ....  5.000e-05
 Orbital Rotation angle TolX            ....  5.000e-05
 DIIS Error             TolErr          ....  1.000e-06


Diagonalization of the overlap matrix:
Smallest eigenvalue                        ... 2.229e-03
Time for diagonalization                   ...    0.001 sec
Threshold for overlap eigenvalues          ... 1.000e-08
Number of eigenvalues below threshold      ... 0
Time for construction of square roots      ...    0.000 sec
Total time needed                          ...    0.001 sec

-------------------
DFT GRID GENERATION
-------------------

General Integration Accuracy     IntAcc      ...  4.340
Radial Grid Type                 RadialGrid  ... Gauss-Chebyshev
Angular Grid (max. acc.)         AngularGrid ... Lebedev-110
Angular grid pruning method      GridPruning ... 3 (G Style)
Weight generation scheme         WeightScheme... Becke
Basis function cutoff            BFCut       ...    1.0000e-10
Integration weight cutoff        WCut        ...    1.0000e-14
Grids for H and He will be reduced by one unit

# of grid points (after initial pruning)     ...   9052 (   0.0 sec)
# of grid points (after weights+screening)   ...   8783 (   0.0 sec)
nearest neighbour list constructed           ...    0.0 sec
Grid point re-assignment to atoms done       ...    0.0 sec
Grid point division into batches done        ...    0.0 sec
Reduced shell lists constructed in    0.1 sec

Total number of grid points                  ...     8783
Total number of batches                      ...      141
Average number of points per batch           ...       62
Average number of grid points per atom       ...     1255
Average number of shells per batch           ...    28.19 (85.42%)
Average number of basis functions per batch  ...    60.08 (84.62%)
Average number of large shells per batch     ...    23.84 (84.56%)
Average number of large basis fcns per batch ...    51.01 (84.90%)
Maximum spatial batch extension              ...  21.59, 24.55, 25.60 au
Average spatial batch extension              ...   4.91,  4.52,  5.01 au

Time for grid setup =    0.120 sec

------------------------------
INITIAL GUESS: MODEL POTENTIAL
------------------------------
Loading Hartree-Fock densities                     ... done
Calculating cut-offs                               ... done
Setting up the integral package                    ... done
Initializing the effective Hamiltonian             ... done
Starting the Coulomb interaction                   ... done (   0.0 sec)
Reading the grid                                   ... done
Mapping shells                                     ... done
Starting the XC term evaluation                    ... done (   0.1 sec)
  promolecular density results
     # of electrons  =     28.001164409
     EX              =    -22.783203969
     EC              =     -0.974613308
     EX+EC           =    -23.757817277
Transforming the Hamiltonian                       ... done (   0.0 sec)
Diagonalizing the Hamiltonian                      ... done (   0.0 sec)
Back transforming the eigenvectors                 ... done (   0.0 sec)
Now organizing SCF variables                       ... done
                      ------------------
                      INITIAL GUESS DONE (   0.4 sec)
                      ------------------
--------------
SCF ITERATIONS
--------------
ITER       Energy         Delta-E        Max-DP      RMS-DP      [F,P]     Damp
               ***  Starting incremental Fock matrix formation  ***
  0   -170.7328952796   0.000000000000 0.08479764  0.00424550  0.2322945 0.7000
  1   -170.7880794350  -0.055184155461 0.04561841  0.00253774  0.0686094 0.7000
                               ***Turning on DIIS***
  2   -170.8023498624  -0.014270427381 0.04279060  0.00327565  0.0389539 0.0000
  3   -170.8336116255  -0.031261763057 0.03059593  0.00189216  0.0322274 0.0000
  4   -170.8375769574  -0.003965331956 0.01237413  0.00060891  0.0420014 0.0000
  5   -170.8393077791  -0.001730821690 0.00393493  0.00019611  0.0107847 0.0000
                      *** Initiating the SOSCF procedure ***
                           *** Shutting down DIIS ***
                      *** Re-Reading the Fockian *** 
                      *** Removing any level shift *** 
ITER      Energy       Delta-E        Grad      Rot      Max-DP    RMS-DP
  6   -170.83942151  -0.0001137267  0.000433  0.000433  0.001036  0.000063
               *** Restarting incremental Fock matrix formation ***
  7   -170.83942847  -0.0000069623  0.000319  0.001880  0.001515  0.000066
  8   -170.83942224   0.0000062249  0.001148  0.001768  0.001186  0.000050
  9   -170.83942955  -0.0000073108  0.000109  0.000395  0.000411  0.000022
 10   -170.83942877   0.0000007874  0.000356  0.000319  0.000329  0.000016
                 **** Energy Check signals convergence ****
              ***Rediagonalizing the Fockian in SOSCF/NRSCF***

               *****************************************************
               *                     SUCCESS                       *
               *           SCF CONVERGED AFTER  11 CYCLES          *
               *****************************************************

Setting up the final grid:

General Integration Accuracy     IntAcc      ...  4.670
Radial Grid Type                 RadialGrid  ... Gauss-Chebyshev
Angular Grid (max. acc.)         AngularGrid ... Lebedev-302
Angular grid pruning method      GridPruning ... 3 (G Style)
Weight generation scheme         WeightScheme... Becke
Basis function cutoff            BFCut       ...    1.0000e-10
Integration weight cutoff        WCut        ...    1.0000e-14
Grids for H and He will be reduced by one unit

# of grid points (after initial pruning)     ...  35030 (   0.0 sec)
# of grid points (after weights+screening)   ...  33785 (   0.0 sec)
nearest neighbour list constructed           ...    0.0 sec
Grid point re-assignment to atoms done       ...    0.0 sec
Grid point division into batches done        ...    0.1 sec
Reduced shell lists constructed in    0.5 sec

Total number of grid points                  ...    33785
Total number of batches                      ...      532
Average number of points per batch           ...       63
Average number of grid points per atom       ...     4826
Average number of shells per batch           ...    25.81 (78.21%)
Average number of basis functions per batch  ...    54.91 (77.34%)
Average number of large shells per batch     ...    21.38 (82.85%)
Average number of large basis fcns per batch ...    45.61 (83.05%)
Maximum spatial batch extension              ...  20.64, 18.51, 21.46 au
Average spatial batch extension              ...   3.22,  3.06,  3.34 au

Final grid set up in    0.5 sec
Final integration                            ... done (   0.4 sec)
Change in XC energy                          ...     0.000057766
Integrated number of electrons               ...    28.000002205
Previous integrated no of electrons          ...    28.001536876

----------------
TOTAL SCF ENERGY
----------------

Total Energy       :         -170.83937188 Eh           -4648.77565 eV

Components:
Nuclear Repulsion  :           90.21173911 Eh            2454.78622 eV
Electronic Energy  :         -261.05111099 Eh           -7103.56187 eV
One Electron Energy:         -407.50043410 Eh          -11088.65055 eV
Two Electron Energy:          146.44932310 Eh            3985.08868 eV

Virial components:
Potential Energy   :         -340.48657178 Eh           -9265.11065 eV
Kinetic Energy     :          169.64719990 Eh            4616.33500 eV
Virial Ratio       :            2.00702736


DFT components:
N(Alpha)           :       14.000001102441 electrons
N(Beta)            :       14.000001102441 electrons
N(Total)           :       28.000002204883 electrons
E(X)               :      -23.215044299573 Eh       
E(C)               :       -0.987889921071 Eh       
E(XC)              :      -24.202934220645 Eh       

---------------
SCF CONVERGENCE
---------------

  Last Energy change         ...   -8.7905e-07  Tolerance :   1.0000e-06
  Last MAX-Density change    ...    1.1557e-04  Tolerance :   1.0000e-05
  Last RMS-Density change    ...    6.0277e-06  Tolerance :   1.0000e-06
  Last Orbital Gradient      ...    3.7094e-05  Tolerance :   5.0000e-05
  Last Orbital Rotation      ...    8.8295e-05  Tolerance :   5.0000e-05

             **** THE GBW FILE WAS UPDATED (/home/jan/SoftwareDevelopment/karminus/output/bp86_ccpvdz/acrylonitrile/acrylonitrile.gbw) ****
             **** DENSITY FILE WAS UPDATED (/home/jan/SoftwareDevelopment/karminus/output/bp86_ccpvdz/acrylonitrile/acrylonitrile.scfp.tmp) ****
             **** ENERGY FILE WAS UPDATED (/home/jan/SoftwareDevelopment/karminus/output/bp86_ccpvdz/acrylonitrile/acrylonitrile.en.tmp) ****
----------------
ORBITAL ENERGIES
----------------

  NO   OCC          E(Eh)            E(eV) 
   0   2.0000     -14.020451      -381.5159 
   1   2.0000      -9.971200      -271.3301 
   2   2.0000      -9.956733      -270.9365 
   3   2.0000      -9.955762      -270.9101 
   4   2.0000      -0.834698       -22.7133 
   5   2.0000      -0.749316       -20.3899 
   6   2.0000      -0.601106       -16.3569 
   7   2.0000      -0.490630       -13.3507 
   8   2.0000      -0.434040       -11.8108 
   9   2.0000      -0.371606       -10.1119 
  10   2.0000      -0.346003        -9.4152 
  11   2.0000      -0.314146        -8.5483 
  12   2.0000      -0.302315        -8.2264 
  13   2.0000      -0.263983        -7.1834 
  14   0.0000      -0.094124        -2.5613 
  15   0.0000      -0.014232        -0.3873 
  16   0.0000       0.060487         1.6459 
  17   0.0000       0.065704         1.7879 
  18   0.0000       0.065883         1.7928 
  19   0.0000       0.092402         2.5144 
  20   0.0000       0.189574         5.1586 
  21   0.0000       0.243628         6.6294 
  22   0.0000       0.260875         7.0988 
  23   0.0000       0.395872        10.7722 
  24   0.0000       0.399225        10.8635 
  25   0.0000       0.431033        11.7290 
  26   0.0000       0.445084        12.1114 
  27   0.0000       0.479991        13.0612 
  28   0.0000       0.495099        13.4723 
  29   0.0000       0.518247        14.1022 
  30   0.0000       0.556989        15.1564 
  31   0.0000       0.599638        16.3170 
  32   0.0000       0.631044        17.1716 
  33   0.0000       0.646878        17.6024 
  34   0.0000       0.701874        19.0990 
  35   0.0000       0.768360        20.9081 
  36   0.0000       0.818837        22.2817 
  37   0.0000       0.860510        23.4157 
  38   0.0000       0.862197        23.4616 
  39   0.0000       0.897891        24.4329 
  40   0.0000       0.909272        24.7426 
  41   0.0000       0.951139        25.8818 
  42   0.0000       1.005374        27.3576 
  43   0.0000       1.030349        28.0372 
  44   0.0000       1.077678        29.3251 
  45   0.0000       1.137469        30.9521 
  46   0.0000       1.304854        35.5069 
  47   0.0000       1.385139        37.6916 
  48   0.0000       1.413575        38.4653 
  49   0.0000       1.436933        39.1009 
  50   0.0000       1.443343        39.2754 
  51   0.0000       1.577978        42.9390 
  52   0.0000       1.580178        42.9988 
  53   0.0000       1.603842        43.6428 
  54   0.0000       1.612617        43.8815 
  55   0.0000       1.622427        44.1485 
  56   0.0000       1.769472        48.1498 
  57   0.0000       1.816428        49.4275 
  58   0.0000       1.848209        50.2923 
  59   0.0000       1.875081        51.0235 
  60   0.0000       1.951680        53.1079 
  61   0.0000       2.015933        54.8563 
  62   0.0000       2.106686        57.3258 
  63   0.0000       2.188086        59.5409 
  64   0.0000       2.315605        63.0108 
  65   0.0000       2.512745        68.3753 
  66   0.0000       2.516955        68.4898 
  67   0.0000       2.625558        71.4451 
  68   0.0000       2.731816        74.3365 
  69   0.0000       2.780565        75.6630 
  70   0.0000       3.009436        81.8909 

                    ********************************
                    * MULLIKEN POPULATION ANALYSIS *
                    ********************************

-----------------------
MULLIKEN ATOMIC CHARGES
-----------------------
   0 C :    0.044930
   1 C :   -0.054120
   2 H :    0.053880
   3 H :    0.053782
   4 C :   -0.051657
   5 H :    0.049365
   6 N :   -0.096178
Sum of atomic charges:   -0.0000000

--------------------------------
MULLIKEN REDUCED ORBITAL CHARGES
--------------------------------
  0 C s       :     3.093964  s :     3.093964
      pz      :     0.924617  p :     2.821245
      px      :     0.954873
      py      :     0.941755
      dz2     :     0.003096  d :     0.039860
      dxz     :     0.007259
      dyz     :     0.005526
      dx2y2   :     0.016196
      dxy     :     0.007784
  1 C s       :     3.113556  s :     3.113556
      pz      :     0.982417  p :     2.874968
      px      :     0.975230
      py      :     0.917321
      dz2     :     0.006304  d :     0.065597
      dxz     :     0.008911
      dyz     :     0.012176
      dx2y2   :     0.022107
      dxy     :     0.016100
  2 H s       :     0.916625  s :     0.916625
      pz      :     0.007103  p :     0.029496
      px      :     0.005641
      py      :     0.016752
  3 H s       :     0.916839  s :     0.916839
      pz      :     0.010107  p :     0.029380
      px      :     0.012838
      py      :     0.006434
  4 C s       :     3.074902  s :     3.074902
      pz      :     0.955803  p :     2.900249
      px      :     0.953002
      py      :     0.991444
      dz2     :     0.009156  d :     0.076506
      dxz     :     0.002969
      dyz     :     0.024147
      dx2y2   :     0.015287
      dxy     :     0.024947
  5 H s       :     0.921629  s :     0.921629
      pz      :     0.010566  p :     0.029006
      px      :     0.012841
      py      :     0.005599
  6 N s       :     3.598990  s :     3.598990
      pz      :     1.070746  p :     3.459260
      px      :     1.037745
      py      :     1.350768
      dz2     :     0.004849  d :     0.037928
      dxz     :     0.001126
      dyz     :     0.011503
      dx2y2   :     0.009489
      dxy     :     0.010960


                     *******************************
                     * LOEWDIN POPULATION ANALYSIS *
                     *******************************

----------------------
LOEWDIN ATOMIC CHARGES
----------------------
   0 C :    0.017565
   1 C :   -0.075422
   2 H :    0.038753
   3 H :    0.040048
   4 C :   -0.094053
   5 H :    0.054619
   6 N :    0.018490

-------------------------------
LOEWDIN REDUCED ORBITAL CHARGES
-------------------------------
  0 C s       :     2.852053  s :     2.852053
      pz      :     0.944944  p :     2.990802
      px      :     1.013051
      py      :     1.032807
      dz2     :     0.011403  d :     0.139579
      dxz     :     0.025876
      dyz     :     0.018900
      dx2y2   :     0.051480
      dxy     :     0.031920
  1 C s       :     2.821240  s :     2.821240
      pz      :     0.985270  p :     3.046222
      px      :     1.035275
      py      :     1.025677
      dz2     :     0.018193  d :     0.207959
      dxz     :     0.029635
      dyz     :     0.038059
      dx2y2   :     0.068471
      dxy     :     0.053601
  2 H s       :     0.878295  s :     0.878295
      pz      :     0.020808  p :     0.082952
      px      :     0.016059
      py      :     0.046086
  3 H s       :     0.877000  s :     0.877000
      pz      :     0.028703  p :     0.082952
      px      :     0.035762
      py      :     0.018487
  4 C s       :     2.891128  s :     2.891128
      pz      :     0.940720  p :     2.973748
      px      :     0.909244
      py      :     1.123784
      dz2     :     0.028336  d :     0.229177
      dxz     :     0.007015
      dyz     :     0.069752
      dx2y2   :     0.061852
      dxy     :     0.062222
  5 H s       :     0.863019  s :     0.863019
      pz      :     0.029200  p :     0.082361
      px      :     0.035622
      py      :     0.017539
  6 N s       :     3.370850  s :     3.370850
      pz      :     1.071032  p :     3.537459
      px      :     1.029692
      py      :     1.436735
      dz2     :     0.009409  d :     0.073202
      dxz     :     0.001672
      dyz     :     0.021329
      dx2y2   :     0.024587
      dxy     :     0.016205


                      *****************************
                      * MAYER POPULATION ANALYSIS *
                      *****************************

  NA   - Mulliken gross atomic population
  ZA   - Total nuclear charge
  QA   - Mulliken gross atomic charge
  VA   - Mayer's total valence
  BVA  - Mayer's bonded valence
  FA   - Mayer's free valence

  ATOM       NA         ZA         QA         VA         BVA        FA
  0 C      5.9551     6.0000     0.0449     3.9755     3.9755     0.0000
  1 C      6.0541     6.0000    -0.0541     4.0717     4.0717    -0.0000
  2 H      0.9461     1.0000     0.0539     0.9708     0.9708     0.0000
  3 H      0.9462     1.0000     0.0538     0.9782     0.9782    -0.0000
  4 C      6.0517     6.0000    -0.0517     4.2760     4.2760    -0.0000
  5 H      0.9506     1.0000     0.0494     0.9788     0.9788     0.0000
  6 N      7.0962     7.0000    -0.0962     3.2908     3.2908    -0.0000

  Mayer bond orders larger than 0.1
B(  0-C ,  1-C ) :   1.9585 B(  0-C ,  2-H ) :   0.9368 B(  0-C ,  3-H ) :   0.9430 
B(  0-C ,  6-N ) :   0.1146 B(  1-C ,  4-C ) :   1.1086 B(  1-C ,  5-H ) :   0.9307 
B(  4-C ,  6-N ) :   3.1396 

-------
TIMINGS
-------

Total SCF time: 0 days 0 hours 0 min 4 sec 

Total time                  ....       4.650 sec
Sum of individual times     ....       4.642 sec  ( 99.8%)

Fock matrix formation       ....       3.730 sec  ( 80.2%)
  Split-RI-J                ....       1.813 sec  ( 48.6% of F)
  XC integration            ....       1.912 sec  ( 51.3% of F)
    Basis function eval.    ....       1.302 sec  ( 68.1% of XC)
    Density eval.           ....       0.167 sec  (  8.8% of XC)
    XC-Functional eval.     ....       0.171 sec  (  9.0% of XC)
    XC-Potential eval.      ....       0.242 sec  ( 12.6% of XC)
Diagonalization             ....       0.006 sec  (  0.1%)
Density matrix formation    ....       0.000 sec  (  0.0%)
Population analysis         ....       0.001 sec  (  0.0%)
Initial guess               ....       0.264 sec  (  5.7%)
Orbital Transformation      ....       0.000 sec  (  0.0%)
Orbital Orthonormalization  ....       0.000 sec  (  0.0%)
DIIS solution               ....       0.002 sec  (  0.0%)
SOSCF solution              ....       0.002 sec  (  0.0%)
Grid generation             ....       0.638 sec  ( 13.7%)

-------------------------   --------------------
FINAL SINGLE POINT ENERGY      -170.839371880006
-------------------------   --------------------


                            ***************************************
                            *     ORCA property calculations      *
                            ***************************************

                                    ---------------------
                                    Active property flags
                                    ---------------------
   (+) Dipole Moment
   (+) Chemical Shifts


------------------------------------------------------------------------------
                       ORCA ELECTRIC PROPERTIES CALCULATION
------------------------------------------------------------------------------

Dipole Moment Calculation                       ... on
Quadrupole Moment Calculation                   ... off
Polarizability Calculation                      ... off
GBWName                                         ... /home/jan/SoftwareDevelopment/karminus/output/bp86_ccpvdz/acrylonitrile/acrylonitrile.gbw
Electron density file                           ... /home/jan/SoftwareDevelopment/karminus/output/bp86_ccpvdz/acrylonitrile/acrylonitrile.scfp.tmp

-------------
DIPOLE MOMENT
-------------
                                X             Y             Z
Electronic contribution:     -0.95433      -3.21721      -0.42018
Nuclear contribution   :      1.07791       4.58903       0.78663
                        -----------------------------------------
Total Dipole Moment    :      0.12358       1.37182       0.36645
                        -----------------------------------------
Magnitude (a.u.)       :      1.42529
Magnitude (Debye)      :      3.62280

------------------------------------------------------------------------------
                                ORCA EPR/NMR CALCULATION
------------------------------------------------------------------------------

GBWName                      ... /home/jan/SoftwareDevelopment/karminus/output/bp86_ccpvdz/acrylonitrile/acrylonitrile.gbw
Electron density file        ... /home/jan/SoftwareDevelopment/karminus/output/bp86_ccpvdz/acrylonitrile/acrylonitrile.scfp.tmp
Spin density file            ... /home/jan/SoftwareDevelopment/karminus/output/bp86_ccpvdz/acrylonitrile/acrylonitrile.scfr.tmp
Treatment of gauge           ... GIAO (approximations 1/2el = 0,3)
Details of the CP(SCF) procedure:
       Solver   = POPLE   
       MaxIter  =    64   
       Tolerance=    1.000e-06
       Op-0     =   0- 13 =>  14- 70
Multiplicity                 ... 1
g-tensor                     ... 0
NMR chemical shifts          ... 1
Number of nuclei for epr/nmr ... 7
   Nucleus:   0C 
       Hyperfine : Isotope=   13 I=   0.500 P= 134.188
       Quadrupole: Isotope=   13 I=   0.500 Q=   0.000
       Spin-Orbit: Zeff=   3.600
       rho(0)=N f(grad)=N a(iso)=N a(dip)=N a(orb)=N sigma(nmr)=Y
   Nucleus:   1C 
       Hyperfine : Isotope=   13 I=   0.500 P= 134.188
       Quadrupole: Isotope=   13 I=   0.500 Q=   0.000
       Spin-Orbit: Zeff=   3.600
       rho(0)=N f(grad)=N a(iso)=N a(dip)=N a(orb)=N sigma(nmr)=Y
   Nucleus:   2H 
       Hyperfine : Isotope=    1 I=   0.500 P= 533.552
       Quadrupole: Isotope=    2 I=   1.000 Q=   0.003
       Spin-Orbit: Zeff=   1.000
       rho(0)=N f(grad)=N a(iso)=N a(dip)=N a(orb)=N sigma(nmr)=Y
   Nucleus:   3H 
       Hyperfine : Isotope=    1 I=   0.500 P= 533.552
       Quadrupole: Isotope=    2 I=   1.000 Q=   0.003
       Spin-Orbit: Zeff=   1.000
       rho(0)=N f(grad)=N a(iso)=N a(dip)=N a(orb)=N sigma(nmr)=Y
   Nucleus:   4C 
       Hyperfine : Isotope=   13 I=   0.500 P= 134.188
       Quadrupole: Isotope=   13 I=   0.500 Q=   0.000
       Spin-Orbit: Zeff=   3.600
       rho(0)=N f(grad)=N a(iso)=N a(dip)=N a(orb)=N sigma(nmr)=Y
   Nucleus:   5H 
       Hyperfine : Isotope=    1 I=   0.500 P= 533.552
       Quadrupole: Isotope=    2 I=   1.000 Q=   0.003
       Spin-Orbit: Zeff=   1.000
       rho(0)=N f(grad)=N a(iso)=N a(dip)=N a(orb)=N sigma(nmr)=Y
   Nucleus:   6N 
       Hyperfine : Isotope=   14 I=   1.000 P=  38.571
       Quadrupole: Isotope=   14 I=   1.000 Q=   0.020
       Spin-Orbit: Zeff=   4.550
       rho(0)=N f(grad)=N a(iso)=N a(dip)=N a(orb)=N sigma(nmr)=Y
Using LibInt in CPSCF-CP

Forming RHS of the CP-SCF equations         ... 
Calculating right hand sides for GIAO treatment (new)  ... 
  Entering RightHandSide GIAO. ScalHFX=    0.0000 NeedHFX=0
     -> 1-electron GIAO integrals will be done analytically
     -> RI used in SCF and no Fock exchange. RIJK enforced by the user
     Making grid for GIAO integrations   ... done
     Test of existence of the V matrix   = 1
     Test of existence of the VCD matrix = 1
     Test of existence of the VO matrix  = 0
     Warning: RI is turned on for GIAO but the V matrix or its Cholesky decomposition are not found - making it
     Calculating V           ... done
     Cholesky decomposition  ... done
     Storing V and VCD       ... done
     Cholesky decomposition-2... done
     Storing VO              ... done
  Getting the pre-screening matrix        ... done
  Extracting occupied and virtual blocks  ... 
  Operator  0  NO=  14 NV=  57 
  One-electron GIAO integrals             ...   done
  Transforming and RHS contribution       ...   done
  Calculating F[B](P)                     ...  (RI-JK)
---------------------
RI-GIAO-TRANSFORMATION (AUX index driven)
----------------------

Dimension of the orbital-basis         ... 71
Dimension of the aux-basis             ... 229
Number of (i,a) MOs                    ... 14,57
Number of ij,ia,ab pairs               ... 196,798,3249
Transformation of internal MOs         ...    0-  13
Transformation of internal/external MOs...    0-  13 to   14-  70

Mapping shells                                 ... done
Making shell addresses                         ... done
Figuring out significant basis function pairs  ... done
  N(Pairs)         ... 2556
  N(Strong pairs)  ... 2553
  Mem-Available    ... 1024 MB
  (p,q) per batch  ... 73259
  N(Batches)       ... 1
Preparing matrix containers                    ... done
Preparing AO buffer                            ... done
Calculating AO integrals and transforming AUX  ... done
Finished RI-GIAO integral generation and aux-index transformation in  0.826 sec
Mapping the MO pairs                            ... done
Getting memory                                  ... done
Second Phase: sorting and transformation of MO indices
Memory available                       ... 1024 MB 
Max. # Aux fcns treated in a batch     ... 229    
Initializing the MO transformation process      ... done
Batch   0: Q=   0 ...  228
   Reading      ... done
   Transforming ... done
Finished transformation of the MO indices in  0.096 sec
Initializing the sorting process                ... done

IJ-Resorting
# of internal pairs                    ... 196
# batches for internal pairs           ... 1
   (0) Reading      ... done
   (0) Writing      ... done
   (1) Reading      ... done
   (1) Writing      ... done
   (2) Reading      ... done
   (2) Writing      ... done
   (3) Reading      ... done
   (3) Writing      ... done
(ij|v) resorting done in     0.003 sec

IA-Resorting
# of internal orbitals                 ... 14
# batches for internal orbitals        ... 1
   (0) Reading      ... done
   (0) Writing      ... done
   (1) Reading      ... done
   (1) Writing      ... done
   (2) Reading      ... done
   (2) Writing      ... done
   (3) Reading      ... done
   (3) Writing      ... done
(ia|v) resorting done in     0.005 sec

  Resorting completed in     0.009 sec
RI-GIAO-Integral transformation completed in     0.978 sec
Reading RI-integrals ... done
Doing RI-JK          ... done
 => dG/dB done
  RI-JK GIAO contributions                ...   done
  DFT XC-terms                            ... done
  Transforming to MO basis/RHS contribs.  ... done
  GIAO profiling information: 
    Total GIAO time               ...       1.7 sec
       Grid setup                 ...       0.1 sec (  7.1%)
       RI-V-matrix setup          ...       0.0 sec (  2.3%)
       GIAO 1-electron integrals  ...       0.0 sec (  1.5%)
       GIAO RI-JK                 ...       0.2 sec ( 13.8%)
       GIAO RI integral trafo     ...       1.0 sec ( 58.5%)
       GIAO XC-terms              ...       0.3 sec ( 16.7%)

  GIAO right hand side done


Forming final perturbed densities           ... done
Transforming perturbed density to AO basis  ...  done

Magnetic field perturbation calculated in  1.742 sec

---------------
CHEMICAL SHIFTS
---------------

Note: using conversion factor for au to ppm alpha^2/2 =   26.625677252 
Doing GIAO para- and diamagnetic shielding integrals analytically     ...done
Doing remaining GIAO terms numerically                                ...done
 --------------
 Nucleus   0C :
 --------------

Diamagnetic contribution to the shielding tensor (ppm) : 
           249.945          8.787       -19.544
            -2.997        264.210        -9.960
             9.993         -9.392       271.743

Paramagnetic contribution to the shielding tensor (ppm): 
          -178.612          2.711        90.834
            30.760       -262.940       -64.726
            66.356        -54.835      -166.905

Total shielding tensor (ppm): 
            71.333         11.498        71.289
            27.762          1.270       -74.686
            76.349        -64.227       104.838


 Diagonalized sT*s matrix:
 
 sDSO           261.158          260.232          264.508  iso=     261.966
 sPSO          -266.158         -253.123          -89.177  iso=    -202.819
        ---------------  ---------------  ---------------
 Total           -5.000            7.110          175.331  iso=      59.147

 --------------
 Nucleus   1C :
 --------------

Diamagnetic contribution to the shielding tensor (ppm) : 
           257.791          4.641        -5.920
            10.294        264.460        11.194
           -21.188         12.012       239.260

Paramagnetic contribution to the shielding tensor (ppm): 
          -157.962         21.084        61.180
            15.582       -221.609       -70.106
            76.649        -70.490      -122.391

Total shielding tensor (ppm): 
            99.829         25.725        55.260
            25.876         42.851       -58.912
            55.462        -58.478       116.869


 Diagonalized sT*s matrix:
 
 sDSO           266.686          267.215          227.610  iso=     253.837
 sPSO          -279.476         -166.847          -55.639  iso=    -167.321
        ---------------  ---------------  ---------------
 Total          -12.790          100.368          171.971  iso=      86.516

 --------------
 Nucleus   2H :
 --------------

Diamagnetic contribution to the shielding tensor (ppm) : 
            19.410          4.295       -11.025
            -4.922         43.893        -7.814
           -11.440         10.171         6.670

Paramagnetic contribution to the shielding tensor (ppm): 
             7.305         -1.901        11.259
             7.058        -19.506         5.941
            11.583        -12.208        18.458

Total shielding tensor (ppm): 
            26.716          2.395         0.234
             2.136         24.387        -1.873
             0.143         -2.037        25.128


 Diagonalized sT*s matrix:
 
 sDSO            36.248            2.757           30.969  iso=      23.325
 sPSO           -14.273           23.125           -2.595  iso=       2.086
        ---------------  ---------------  ---------------
 Total           21.975           25.881           28.374  iso=      25.410

 --------------
 Nucleus   3H :
 --------------

Diamagnetic contribution to the shielding tensor (ppm) : 
            34.696          0.042        -8.705
            -3.079         27.935        -1.757
            19.025        -13.498        70.523

Paramagnetic contribution to the shielding tensor (ppm): 
            -8.785          1.758         9.108
             7.486         -2.721        -1.238
           -17.797         12.227       -46.131

Total shielding tensor (ppm): 
            25.911          1.800         0.403
             4.408         25.214        -2.995
             1.228         -1.271        24.392


 Diagonalized sT*s matrix:
 
 sDSO            34.602           65.822           32.731  iso=      44.385
 sPSO           -13.550          -40.209           -3.877  iso=     -19.212
        ---------------  ---------------  ---------------
 Total           21.051           25.612           28.854  iso=      25.172

 --------------
 Nucleus   4C :
 --------------

Diamagnetic contribution to the shielding tensor (ppm) : 
           252.531         -1.553         5.263
             4.533        281.803        16.781
            12.061          5.203       272.129

Paramagnetic contribution to the shielding tensor (ppm): 
          -268.391          4.840        -6.295
            -2.610        -25.904        71.131
           -13.562         81.898      -262.003

Total shielding tensor (ppm): 
           -15.860          3.287        -1.032
             1.924        255.899        87.912
            -1.500         87.101        10.126


 Diagonalized sT*s matrix:
 
 sDSO           249.476          269.652          287.335  iso=     268.821
 sPSO          -264.105         -288.742           -3.451  iso=    -185.433
        ---------------  ---------------  ---------------
 Total          -14.629          -19.090          283.884  iso=      83.388

 --------------
 Nucleus   5H :
 --------------

Diamagnetic contribution to the shielding tensor (ppm) : 
            35.722         -3.107        -6.564
             0.601         27.505         8.954
           -36.723         18.622       -12.198

Paramagnetic contribution to the shielding tensor (ppm): 
            -9.463          4.092         5.360
             1.431         -0.558        -9.306
            35.866        -18.297        36.796

Total shielding tensor (ppm): 
            26.259          0.986        -1.204
             2.032         26.947        -0.351
            -0.857          0.325        24.598


 Diagonalized sT*s matrix:
 
 sDSO           -20.123           41.217           29.934  iso=      17.010
 sPSO            44.054          -15.617           -1.662  iso=       8.925
        ---------------  ---------------  ---------------
 Total           23.931           25.600           28.273  iso=      25.935

 --------------
 Nucleus   6N :
 --------------

Diamagnetic contribution to the shielding tensor (ppm) : 
           344.672         -1.254         4.067
             3.178        341.323         4.837
             6.353         -3.086       352.293

Paramagnetic contribution to the shielding tensor (ppm): 
          -490.774          4.544        -5.608
            -5.035       -144.105       109.051
            -9.646        113.586      -464.488

Total shielding tensor (ppm): 
          -146.101          3.290        -1.541
            -1.857        197.217       113.888
            -3.293        110.500      -112.195


 Diagonalized sT*s matrix:
 
 sDSO           342.190          353.224          342.875  iso=     346.096
 sPSO          -486.239         -503.383         -109.745  iso=    -366.456
        ---------------  ---------------  ---------------
 Total         -144.049         -150.159          233.130  iso=     -20.359



--------------------------
CHEMICAL SHIELDING SUMMARY (ppm)
--------------------------


  Nucleus  Element    Isotropic     Anisotropy
  -------  -------  ------------   ------------
      0       C           59.147        174.277 
      1       C           86.516        128.182 
      2       H           25.410          4.446 
      3       H           25.172          5.522 
      4       C           83.388        300.743 
      5       H           25.935          3.507 
      6       N          -20.359        380.235 



Timings for individual modules:

Sum of individual times         ...        9.412 sec (=   0.157 min)
GTO integral calculation        ...        0.180 sec (=   0.003 min)   1.9 %
SCF iterations                  ...        4.659 sec (=   0.078 min)  49.5 %
SCF-level EPR/NMR calculation   ...        4.573 sec (=   0.076 min)  48.6 %
                             ****ORCA TERMINATED NORMALLY****
TOTAL RUN TIME: 0 days 0 hours 0 minutes 9 seconds 504 msec
