
                                 *****************
                                 * O   R   C   A *
                                 *****************

           --- An Ab Initio, DFT and Semiempirical electronic structure package ---

                  #######################################################
                  #                        -***-                        #
                  #  Department of molecular theory and spectroscopy    #
                  #              Directorship: Frank Neese              #
                  # Max Planck Institute for Chemical Energy Conversion #
                  #                  D-45470 Muelheim/Ruhr              #
                  #                       Germany                       #
                  #                                                     #
                  #                  All rights reserved                #
                  #                        -***-                        #
                  #######################################################


                         Program Version 4.0.0.2 - RELEASE -


 With contributions from (in alphabetic order):
   Daniel Aravena         : Magnetic Properties
   Michael Atanasov       : Ab Initio Ligand Field Theory
   Ute Becker             : Parallelization
   Martin Brehm           : Molecular dynamics
   Dmytro Bykov           : SCF Hessian
   Vijay G. Chilkuri      : MRCI spin determinant printing
   Dipayan Datta          : RHF DLPNO-CCSD density
   Achintya Kumar Dutta   : EOM-CC, STEOM-CC
   Dmitry Ganyushin       : Spin-Orbit,Spin-Spin,Magnetic field MRCI
   Yang Guo               : DLPNO-NEVPT2, CIM, IAO-localization
   Andreas Hansen         : Spin unrestricted coupled pair/coupled cluster methods
   Lee Huntington         : MR-EOM, pCC
   Robert Izsak           : Overlap fitted RIJCOSX, COSX-SCS-MP3, EOM
   Christian Kollmar      : KDIIS, OOCD, Brueckner-CCSD(T), CCSD density
   Simone Kossmann        : Meta GGA functionals, TD-DFT gradient, OOMP2, MP2 Hessian
   Martin Krupicka        : AUTO-CI
   Dagmar Lenk            : GEPOL surface
   Dimitrios Liakos       : Extrapolation schemes; parallel MDCI
   Dimitrios Manganas     : ROCIS; embedding schemes
   Dimitrios Pantazis     : SARC Basis sets
   Taras Petrenko         : DFT Hessian,TD-DFT gradient, ASA, ECA, R-Raman, ABS, FL, XAS/XES, NRVS
   Peter Pinski           : DLPNO-MP2
   Christoph Reimann      : Effective Core Potentials
   Marius Retegan         : Local ZFS, SOC
   Christoph Riplinger    : Optimizer, TS searches, QM/MM, DLPNO-CCSD(T), (RO)-DLPNO pert. Triples
   Tobias Risthaus        : Range-separated hybrids, TD-DFT gradient, RPA, STAB
   Michael Roemelt        : Restricted open shell CIS
   Masaaki Saitow         : Open-shell DLPNO
   Barbara Sandhoefer     : DKH picture change effects
   Kantharuban Sivalingam : CASSCF convergence, NEVPT2, FIC-MRCI
   Georgi Stoychev        : AutoAux
   Boris Wezisla          : Elementary symmetry handling
   Frank Wennmohs         : Technical directorship


 We gratefully acknowledge several colleagues who have allowed us to
 interface, adapt or use parts of their codes:
   Stefan Grimme, W. Hujo, H. Kruse,             : VdW corrections, initial TS optimization,
                  C. Bannwarth                     DFT functionals, gCP, sTDA/sTD-DF
   Ed Valeev                                     : LibInt (2-el integral package), F12 methods
   Garnet Chan, S. Sharma, J. Yang, R. Olivares  : DMRG
   Ulf Ekstrom                                   : XCFun DFT Library
   Mihaly Kallay                                 : mrcc  (arbitrary order and MRCC methods)
   Jiri Pittner, Ondrej Demel                    : Mk-CCSD
   Frank Weinhold                                : gennbo (NPA and NBO analysis)
   Christopher J. Cramer and Donald G. Truhlar   : smd solvation model


 Your calculation uses the libint2 library for the computation of 2-el integrals
 For citations please refer to: http://libint.valeyev.net

 This ORCA versions uses:
   CBLAS   interface :  Fast vector & matrix operations
   LAPACKE interface :  Fast linear algebra routines
   SCALAPACK package :  Parallel linear algebra routines




*****************************************
The coordinations will be read from file: guess.xyz
*****************************************



Information: The global flag for chemical shieldings has been found
             ==>> will calculate the chemical shifts for all atoms in the system

Your calculation utilizes the basis: aug-cc-pVDZ 
    H, B-Ne : Obtained from the ccRepo (grant-hill.group.shef.ac.uk/ccrepo) Feb. 2017
              R. A. Kendall, T. H. Dunning, Jr., R. J. Harrison, J. Chem. Phys. 96, 6796 (1992)
         He : Obtained from the ccRepo (grant-hill.group.shef.ac.uk/ccrepo) Feb. 2017
              D. E. Woon, T. H. Dunning, Jr., J. Chem. Phys. 100, 2975 (1994)
  Li-Be, Na : Obtained from the ccRepo (grant-hill.group.shef.ac.uk/ccrepo) Feb. 2017
              B. P. Prascher, D. E. Woon, K. A. Peterson, T. H. Dunning, Jr., A. K. Wilson, Theor. Chem. Acc. 128, 69 (2011)
         Mg : Obtained from the Peterson Research Group Website (tyr0.chem.wsu.edu/~kipeters) Feb. 2017
              B. P. Prascher, D. E. Woon, K. A. Peterson, T. H. Dunning, Jr., A. K. Wilson, Theor. Chem. Acc. 128, 69 (2011)
      Al-Ar : Obtained from the ccRepo (grant-hill.group.shef.ac.uk/ccrepo) Feb. 2017
              D. E. Woon, T. H. Dunning, Jr., J. Chem. Phys. 98, 1358 (1993)
      Sc-Zn : Obtained from the ccRepo (grant-hill.group.shef.ac.uk/ccrepo) Feb. 2017
              N. B. Balabanov, K. A. Peterson, J. Chem. Phys. 123, 064107 (2005)
              N. B. Balabanov, K. A. Peterson, J. Chem. Phys. 125, 074110 (2006)
      Ga-Kr : Obtained from the ccRepo (grant-hill.group.shef.ac.uk/ccrepo) Feb. 2017
              A. K. Wilson, D. E. Woon, K. A. Peterson, T. H. Dunning, Jr., J. Chem. Phys. 110, 7667 (1999)

================================================================================
                                        WARNINGS
                       Please study these warnings very carefully!
================================================================================

Warning: TCutStore was < 0. Adjusted to Thresh (uncritical)

INFO   : the flag for use of LIBINT has been found!

CheckInput: checking for shifts: .

Warning: GIAO NMR calculation needs an auxiliary basis but have none
           ===>>> Using AutoAux, but it is safer for you to specify one in the input
           ===>>> Done building the auxiliary basis
           ===>>> Writing GBW file done
================================================================================
                                       INPUT FILE
================================================================================
NAME = /home/jan/SoftwareDevelopment/ORCAunleashed/output/meta_cresol/meta_cresol.in
|  1> !aug-cc-pVDZ B3LYP NMR
|  2> 
|  3> *xyzfile 0 1 guess.xyz
|  4> 
|  5> 
|  6>                          ****END OF INPUT****
================================================================================

                       ****************************
                       * Single Point Calculation *
                       ****************************

---------------------------------
CARTESIAN COORDINATES (ANGSTROEM)
---------------------------------
  C    -15.044710    2.469670    8.080800
  C    -14.004600    1.774380    7.467310
  C    -12.858460    2.455660    7.052210
  C    -12.739200    3.837100    7.257160
  C    -13.795980    4.532070    7.861000
  C    -14.934340    3.841410    8.271280
  O    -15.977960    4.484920    8.869120
  C    -11.521610    4.570600    6.777640
  H    -11.329870    5.455410    7.393710
  H    -11.659940    4.886200    5.739000
  H    -10.633030    3.933590    6.839700
  H    -15.758100    5.427990    8.938950
  H    -15.938870    1.945550    8.404990
  H    -14.087910    0.702450    7.309810
  H    -12.057660    1.901070    6.567900
  H    -13.719660    5.605540    8.005470

----------------------------
CARTESIAN COORDINATES (A.U.)
----------------------------
  NO LB      ZA    FRAG     MASS         X           Y           Z
   0 C     6.0000    0    12.011  -28.430382    4.667000   15.270499
   1 C     6.0000    0    12.011  -26.464859    3.353092   14.111171
   2 C     6.0000    0    12.011  -24.298968    4.640525   13.326746
   3 C     6.0000    0    12.011  -24.073599    7.251068   13.714045
   4 C     6.0000    0    12.011  -26.070624    8.564371   14.855137
   5 C     6.0000    0    12.011  -28.221813    7.259213   15.630454
   6 O     8.0000    0    15.999  -30.193969    8.475271   16.760208
   7 C     6.0000    0    12.011  -21.772688    8.637182   12.807883
   8 H     1.0000    0     1.008  -21.410351   10.309231   13.972087
   9 H     1.0000    0     1.008  -22.034093    9.233580   10.845138
  10 H     1.0000    0     1.008  -20.093515    7.433408   12.925160
  11 H     1.0000    0     1.008  -29.778493   10.257415   16.892167
  12 H     1.0000    0     1.008  -30.120099    3.676557   15.883129
  13 H     1.0000    0     1.008  -26.622292    1.327438   13.813539
  14 H     1.0000    0     1.008  -22.785675    3.592502   12.411532
  15 H     1.0000    0     1.008  -25.926400   10.592935   15.128146

--------------------------------
INTERNAL COORDINATES (ANGSTROEM)
--------------------------------
 C      0   0   0     0.000000000000     0.00000000     0.00000000
 C      1   0   0     1.393422755771     0.00000000     0.00000000
 C      2   1   0     1.396455279628   120.00536950     0.00000000
 C      3   2   1     1.401643294030   120.47758650     0.50392299
 C      4   3   2     1.401566985520   119.17948612   358.77326765
 C      1   2   3     1.389292911844   119.58670291     0.21195884
 O      6   1   2     1.364060295625   117.71735147   179.65461638
 C      4   3   2     1.500162354047   120.27954958   181.59076691
 H      8   4   3     1.095077718064   110.93747917   207.82190976
 H      8   4   3     1.094308730889   109.98654867    87.34197102
 H      8   4   3     1.095083375867   110.85782210   326.83385003
 H      7   6   1     0.970873665005   108.45236428   179.68177287
 H      1   2   3     1.085966406525   120.34563184   179.94645832
 H      2   1   3     1.086637350269   119.92149997   180.18284663
 H      3   2   1     1.087845064428   119.19629056   180.45810543
 H      5   4   3     1.085833396152   119.63890401   181.20808964

---------------------------
INTERNAL COORDINATES (A.U.)
---------------------------
 C      0   0   0     0.000000000000     0.00000000     0.00000000
 C      1   0   0     2.633187397181     0.00000000     0.00000000
 C      2   1   0     2.638918036765   120.00536950     0.00000000
 C      3   2   1     2.648721963164   120.47758650     0.50392299
 C      4   3   2     2.648577760979   119.17948612   358.77326765
 C      1   2   3     2.625383123183   119.58670291     0.21195884
 O      6   1   2     2.577700388887   117.71735147   179.65461638
 C      4   3   2     2.834896005568   120.27954958   181.59076691
 H      8   4   3     2.069396982500   110.93747917   207.82190976
 H      8   4   3     2.067943807339   109.98654867    87.34197102
 H      8   4   3     2.069407674198   110.85782210   326.83385003
 H      7   6   1     1.834685337496   108.45236428   179.68177287
 H      1   2   3     2.052179098970   120.34563184   179.94645832
 H      2   1   3     2.053446998899   119.92149997   180.18284663
 H      3   2   1     2.055729247907   119.19629056   180.45810543
 H      5   4   3     2.051927745794   119.63890401   181.20808964

---------------------
BASIS SET INFORMATION
---------------------
There are 3 groups of distinct atoms

 Group   1 Type C   : 18s5p2d contracted to 4s3p2d pattern {8811/311/11}
 Group   2 Type O   : 18s5p2d contracted to 4s3p2d pattern {8811/311/11}
 Group   3 Type H   : 5s2p contracted to 3s2p pattern {311/11}

Atom   0C    basis set group =>   1
Atom   1C    basis set group =>   1
Atom   2C    basis set group =>   1
Atom   3C    basis set group =>   1
Atom   4C    basis set group =>   1
Atom   5C    basis set group =>   1
Atom   6O    basis set group =>   2
Atom   7C    basis set group =>   1
Atom   8H    basis set group =>   3
Atom   9H    basis set group =>   3
Atom  10H    basis set group =>   3
Atom  11H    basis set group =>   3
Atom  12H    basis set group =>   3
Atom  13H    basis set group =>   3
Atom  14H    basis set group =>   3
Atom  15H    basis set group =>   3

INFORMATION: There is an auxiliary basis set but the global RI flag is NOT set

-------------------------------
AUXILIARY BASIS SET INFORMATION
-------------------------------
There are 3 groups of distinct atoms

 Group   1 Type C   : 18s15p14d5f contracted to 18s15p14d5f pattern {111111111111111111/111111111111111/11111111111111/11111}
 Group   2 Type O   : 18s15p14d5f contracted to 18s15p14d5f pattern {111111111111111111/111111111111111/11111111111111/11111}
 Group   3 Type H   : 12s5p4d contracted to 12s5p4d pattern {111111111111/11111/1111}

Atom   0C    basis set group =>   1
Atom   1C    basis set group =>   1
Atom   2C    basis set group =>   1
Atom   3C    basis set group =>   1
Atom   4C    basis set group =>   1
Atom   5C    basis set group =>   1
Atom   6O    basis set group =>   2
Atom   7C    basis set group =>   1
Atom   8H    basis set group =>   3
Atom   9H    basis set group =>   3
Atom  10H    basis set group =>   3
Atom  11H    basis set group =>   3
Atom  12H    basis set group =>   3
Atom  13H    basis set group =>   3
Atom  14H    basis set group =>   3
Atom  15H    basis set group =>   3

Checking for AutoStart:
The File: /home/jan/SoftwareDevelopment/ORCAunleashed/output/meta_cresol/meta_cresol.gbw exists
Trying to determine its content:
     ... Fine, the file contains calculation information
     ... Fine, the calculation information was read
     ... Fine, the file contains a basis set
     ... Fine, the basis set was read
     ... Fine, the file contains a geometry
     ... Fine, the geometry was read
     ... The file does not contain orbitals - skipping AutoStart
------------------------------------------------------------------------------
                           ORCA GTO INTEGRAL CALCULATION
------------------------------------------------------------------------------

                         BASIS SET STATISTICS AND STARTUP INFO

 # of primitive gaussian shells          ...  256
 # of primitive gaussian functions       ...  432
 # of contracted shells                  ...  112
 # of contracted basis functions         ...  256
 Highest angular momentum                ...    2
 Maximum contraction depth               ...    8
 Integral package used                   ... LIBINT
 Integral threshhold            Thresh   ...  1.000e-10
 Primitive cut-off              TCut     ...  1.000e-11


------------------------------ INTEGRAL EVALUATION ----------------------------


 * One electron integrals 
 Pre-screening matrix                    ... done
 Shell pair data                         ... done (   0.005 sec)

-------------------------------------------------------------------------------
                                 ORCA SCF
-------------------------------------------------------------------------------

------------
SCF SETTINGS
------------
Hamiltonian:
 Density Functional     Method          .... DFT(GTOs)
 Exchange Functional    Exchange        .... B88
   X-Alpha parameter    XAlpha          ....  0.666667
   Becke's b parameter  XBeta           ....  0.004200
 Correlation Functional Correlation     .... LYP
 LDA part of GGA corr.  LDAOpt          .... VWN-5
 Gradients option       PostSCFGGA      .... off
 Hybrid DFT is turned on
   Fraction HF Exchange ScalHFX         ....  0.200000
   Scaling of DF-GGA-X  ScalDFX         ....  0.720000
   Scaling of DF-GGA-C  ScalDFC         ....  0.810000
   Scaling of DF-LDA-C  ScalLDAC        ....  1.000000
   Perturbative correction              ....  0.000000
   NL short-range parameter             ....  4.800000


General Settings:
 Integral files         IntName         .... /home/jan/SoftwareDevelopment/ORCAunleashed/output/meta_cresol/meta_cresol
 Hartree-Fock type      HFTyp           .... RHF
 Total Charge           Charge          ....    0
 Multiplicity           Mult            ....    1
 Number of Electrons    NEL             ....   58
 Basis Dimension        Dim             ....  256
 Nuclear Repulsion      ENuc            ....    343.7539462827 Eh

Convergence Acceleration:
 DIIS                   CNVDIIS         .... on
   Start iteration      DIISMaxIt       ....    12
   Startup error        DIISStart       ....  0.200000
   # of expansion vecs  DIISMaxEq       ....     5
   Bias factor          DIISBfac        ....   1.050
   Max. coefficient     DIISMaxC        ....  10.000
 Newton-Raphson         CNVNR           .... off
 SOSCF                  CNVSOSCF        .... on
   Start iteration      SOSCFMaxIt      ....   150
   Startup grad/error   SOSCFStart      ....  0.003300
 Level Shifting         CNVShift        .... on
   Level shift para.    LevelShift      ....    0.2500
   Turn off err/grad.   ShiftErr        ....    0.0010
 Zerner damping         CNVZerner       .... off
 Static damping         CNVDamp         .... on
   Fraction old density DampFac         ....    0.7000
   Max. Damping (<1)    DampMax         ....    0.9800
   Min. Damping (>=0)   DampMin         ....    0.0000
   Turn off err/grad.   DampErr         ....    0.1000
 Fernandez-Rico         CNVRico         .... off

SCF Procedure:
 Maximum # iterations   MaxIter         ....   125
 SCF integral mode      SCFMode         .... Direct
   Integral package                     .... LIBINT
 Reset frequeny         DirectResetFreq ....    20
 Integral Threshold     Thresh          ....  1.000e-10 Eh
 Primitive CutOff       TCut            ....  1.000e-11 Eh

Convergence Tolerance:
 Convergence Check Mode ConvCheckMode   .... Total+1el-Energy
 Convergence forced     ConvForced      .... 0
 Energy Change          TolE            ....  1.000e-06 Eh
 1-El. energy change                    ....  1.000e-03 Eh
 Orbital Gradient       TolG            ....  5.000e-05
 Orbital Rotation angle TolX            ....  5.000e-05
 DIIS Error             TolErr          ....  1.000e-06


Diagonalization of the overlap matrix:
Smallest eigenvalue                        ... 1.242e-04
Time for diagonalization                   ...    0.009 sec
Threshold for overlap eigenvalues          ... 1.000e-08
Number of eigenvalues below threshold      ... 0
Time for construction of square roots      ...    0.002 sec
Total time needed                          ...    0.012 sec

-------------------
DFT GRID GENERATION
-------------------

General Integration Accuracy     IntAcc      ...  4.340
Radial Grid Type                 RadialGrid  ... Gauss-Chebyshev
Angular Grid (max. acc.)         AngularGrid ... Lebedev-110
Angular grid pruning method      GridPruning ... 3 (G Style)
Weight generation scheme         WeightScheme... Becke
Basis function cutoff            BFCut       ...    1.0000e-10
Integration weight cutoff        WCut        ...    1.0000e-14
Grids for H and He will be reduced by one unit

# of grid points (after initial pruning)     ...  19660 (   0.0 sec)
# of grid points (after weights+screening)   ...  18309 (   0.0 sec)
nearest neighbour list constructed           ...    0.0 sec
Grid point re-assignment to atoms done       ...    0.0 sec
Grid point division into batches done        ...    0.0 sec
Reduced shell lists constructed in    0.6 sec

Total number of grid points                  ...    18309
Total number of batches                      ...      294
Average number of points per batch           ...       62
Average number of grid points per atom       ...     1144
Average number of shells per batch           ...    94.84 (84.68%)
Average number of basis functions per batch  ...   217.10 (84.81%)
Average number of large shells per batch     ...    80.28 (84.66%)
Average number of large basis fcns per batch ...   185.29 (85.35%)
Maximum spatial batch extension              ...  20.62, 18.72, 25.99 au
Average spatial batch extension              ...   3.96,  3.66,  4.39 au

Time for grid setup =    0.603 sec

------------------------------
INITIAL GUESS: MODEL POTENTIAL
------------------------------
Loading Hartree-Fock densities                     ... done
Calculating cut-offs                               ... done
Setting up the integral package                    ... done
Initializing the effective Hamiltonian             ... done
Starting the Coulomb interaction                   ... done (   0.6 sec)
Reading the grid                                   ... done
Mapping shells                                     ... done
Starting the XC term evaluation                    ... done (   1.0 sec)
  promolecular density results
     # of electrons  =     57.997160163
     EX              =    -46.572934255
     EC              =     -1.938585545
     EX+EC           =    -48.511519800
Transforming the Hamiltonian                       ... done (   0.0 sec)
Diagonalizing the Hamiltonian                      ... done (   0.0 sec)
Back transforming the eigenvectors                 ... done (   0.0 sec)
Now organizing SCF variables                       ... done
                      ------------------
                      INITIAL GUESS DONE (   2.3 sec)
                      ------------------
--------------
SCF ITERATIONS
--------------
ITER       Energy         Delta-E        Max-DP      RMS-DP      [F,P]     Damp
               ***  Starting incremental Fock matrix formation  ***
  0   -346.3972433296   0.000000000000 1.86605844  0.01329778  8.8668953 0.7000
  1   -346.4983529832  -0.101109653550 1.11146634  0.00769558  5.3021431 0.7000
  2   -346.5407811162  -0.042428133019 0.43797160  0.00301717  2.4997395 0.7000
  3   -346.5638514527  -0.023070336545 0.13572247  0.00109666  0.9724394 0.7000
                      *** Initiating the SOSCF procedure ***
                      *** Re-Reading the Fockian *** 
                      *** Removing any level shift *** 
ITER      Energy       Delta-E        Grad      Rot      Max-DP    RMS-DP
  4   -346.57990072  -0.0160492665  0.001921  0.001921  0.140802  0.001821
               *** Restarting incremental Fock matrix formation ***
  5   -346.61771449  -0.0378137671  0.001073  0.004585  0.068344  0.000771
  6   -346.61772847  -0.0000139841  0.002305  0.004699  0.066110  0.000519
  7   -346.61794926  -0.0002207883  0.000829  0.002503  0.044324  0.000333
  8   -346.61794249   0.0000067704  0.000835  0.001251  0.021460  0.000164
  9   -346.61796240  -0.0000199082  0.000111  0.000363  0.013129  0.000083
 10   -346.61796219   0.0000002081  0.000148  0.000248  0.011369  0.000071
 11   -346.61796287  -0.0000006820  0.000026  0.000044  0.003106  0.000021
                 **** Energy Check signals convergence ****
              ***Rediagonalizing the Fockian in SOSCF/NRSCF***

               *****************************************************
               *                     SUCCESS                       *
               *           SCF CONVERGED AFTER  12 CYCLES          *
               *****************************************************

Setting up the final grid:

General Integration Accuracy     IntAcc      ...  4.670
Radial Grid Type                 RadialGrid  ... Gauss-Chebyshev
Angular Grid (max. acc.)         AngularGrid ... Lebedev-302
Angular grid pruning method      GridPruning ... 3 (G Style)
Weight generation scheme         WeightScheme... Becke
Basis function cutoff            BFCut       ...    1.0000e-10
Integration weight cutoff        WCut        ...    1.0000e-14
Grids for H and He will be reduced by one unit

# of grid points (after initial pruning)     ...  76848 (   0.0 sec)
# of grid points (after weights+screening)   ...  70400 (   0.1 sec)
nearest neighbour list constructed           ...    0.0 sec
Grid point re-assignment to atoms done       ...    0.0 sec
Grid point division into batches done        ...    0.2 sec
Reduced shell lists constructed in    2.1 sec

Total number of grid points                  ...    70400
Total number of batches                      ...     1107
Average number of points per batch           ...       63
Average number of grid points per atom       ...     4400
Average number of shells per batch           ...    90.08 (80.42%)
Average number of basis functions per batch  ...   205.57 (80.30%)
Average number of large shells per batch     ...    74.84 (83.08%)
Average number of large basis fcns per batch ...   172.33 (83.83%)
Maximum spatial batch extension              ...  18.41, 18.47, 21.96 au
Average spatial batch extension              ...   2.60,  2.44,  2.77 au

Final grid set up in    2.3 sec
Final integration                            ... done (   3.3 sec)
Change in XC energy                          ...     0.000284490
Integrated number of electrons               ...    57.999986851
Previous integrated no of electrons          ...    58.002874013

----------------
TOTAL SCF ENERGY
----------------

Total Energy       :         -346.61767841 Eh           -9431.94654 eV

Components:
Nuclear Repulsion  :          343.75394628 Eh            9354.02043 eV
Electronic Energy  :         -690.37162470 Eh          -18785.96697 eV
One Electron Energy:        -1149.40236450 Eh          -31276.82842 eV
Two Electron Energy:          459.03073980 Eh           12490.86145 eV

Virial components:
Potential Energy   :         -691.33043943 Eh          -18812.05764 eV
Kinetic Energy     :          344.71276102 Eh            9380.11110 eV
Virial Ratio       :            2.00552610


DFT components:
N(Alpha)           :       28.999993425708 electrons
N(Beta)            :       28.999993425708 electrons
N(Total)           :       57.999986851416 electrons
E(X)               :      -37.618429300071 Eh       
E(C)               :       -2.291891327485 Eh       
E(XC)              :      -39.910320627556 Eh       

---------------
SCF CONVERGENCE
---------------

  Last Energy change         ...   -3.2789e-08  Tolerance :   1.0000e-06
  Last MAX-Density change    ...    1.0467e-03  Tolerance :   1.0000e-05
  Last RMS-Density change    ...    7.3836e-06  Tolerance :   1.0000e-06
  Last Orbital Gradient      ...    2.0375e-05  Tolerance :   5.0000e-05
  Last Orbital Rotation      ...    2.1952e-05  Tolerance :   5.0000e-05

             **** THE GBW FILE WAS UPDATED (/home/jan/SoftwareDevelopment/ORCAunleashed/output/meta_cresol/meta_cresol.gbw) ****
             **** DENSITY FILE WAS UPDATED (/home/jan/SoftwareDevelopment/ORCAunleashed/output/meta_cresol/meta_cresol.scfp.tmp) ****
             **** ENERGY FILE WAS UPDATED (/home/jan/SoftwareDevelopment/ORCAunleashed/output/meta_cresol/meta_cresol.en.tmp) ****
----------------
ORBITAL ENERGIES
----------------

  NO   OCC          E(Eh)            E(eV) 
   0   2.0000     -19.179849      -521.9102 
   1   2.0000     -10.246658      -278.8257 
   2   2.0000     -10.198286      -277.5095 
   3   2.0000     -10.188534      -277.2441 
   4   2.0000     -10.184472      -277.1336 
   5   2.0000     -10.182430      -277.0780 
   6   2.0000     -10.179009      -276.9849 
   7   2.0000     -10.177066      -276.9320 
   8   2.0000      -1.067546       -29.0494 
   9   2.0000      -0.856415       -23.3042 
  10   2.0000      -0.775367       -21.0988 
  11   2.0000      -0.740867       -20.1600 
  12   2.0000      -0.691524       -18.8173 
  13   2.0000      -0.623517       -16.9668 
  14   2.0000      -0.585894       -15.9430 
  15   2.0000      -0.540411       -14.7053 
  16   2.0000      -0.497985       -13.5509 
  17   2.0000      -0.471768       -12.8375 
  18   2.0000      -0.433795       -11.8042 
  19   2.0000      -0.428731       -11.6664 
  20   2.0000      -0.411514       -11.1979 
  21   2.0000      -0.407014       -11.0754 
  22   2.0000      -0.405191       -11.0258 
  23   2.0000      -0.378399       -10.2968 
  24   2.0000      -0.354537        -9.6474 
  25   2.0000      -0.340178        -9.2567 
  26   2.0000      -0.330705        -8.9989 
  27   2.0000      -0.249733        -6.7956 
  28   2.0000      -0.225139        -6.1264 
  29   0.0000      -0.015882        -0.4322 
  30   0.0000      -0.013294        -0.3617 
  31   0.0000      -0.000236        -0.0064 
  32   0.0000      -0.000085        -0.0023 
  33   0.0000       0.006823         0.1857 
  34   0.0000       0.023539         0.6405 
  35   0.0000       0.027537         0.7493 
  36   0.0000       0.028484         0.7751 
  37   0.0000       0.044189         1.2025 
  38   0.0000       0.052814         1.4371 
  39   0.0000       0.057534         1.5656 
  40   0.0000       0.072699         1.9782 
  41   0.0000       0.074731         2.0335 
  42   0.0000       0.078909         2.1472 
  43   0.0000       0.087230         2.3736 
  44   0.0000       0.091420         2.4877 
  45   0.0000       0.100869         2.7448 
  46   0.0000       0.103574         2.8184 
  47   0.0000       0.106641         2.9019 
  48   0.0000       0.109201         2.9715 
  49   0.0000       0.110790         3.0148 
  50   0.0000       0.115354         3.1389 
  51   0.0000       0.117695         3.2026 
  52   0.0000       0.120124         3.2688 
  53   0.0000       0.123432         3.3588 
  54   0.0000       0.134457         3.6588 
  55   0.0000       0.137790         3.7495 
  56   0.0000       0.147807         4.0220 
  57   0.0000       0.152201         4.1416 
  58   0.0000       0.154715         4.2100 
  59   0.0000       0.165261         4.4970 
  60   0.0000       0.177395         4.8272 
  61   0.0000       0.180859         4.9214 
  62   0.0000       0.183702         4.9988 
  63   0.0000       0.191166         5.2019 
  64   0.0000       0.205790         5.5998 
  65   0.0000       0.211102         5.7444 
  66   0.0000       0.224903         6.1199 
  67   0.0000       0.227339         6.1862 
  68   0.0000       0.231797         6.3075 
  69   0.0000       0.237030         6.4499 
  70   0.0000       0.242082         6.5874 
  71   0.0000       0.247725         6.7409 
  72   0.0000       0.248663         6.7665 
  73   0.0000       0.265588         7.2270 
  74   0.0000       0.271738         7.3944 
  75   0.0000       0.276142         7.5142 
  76   0.0000       0.279068         7.5938 
  77   0.0000       0.282478         7.6866 
  78   0.0000       0.291841         7.9414 
  79   0.0000       0.302488         8.2311 
  80   0.0000       0.309543         8.4231 
  81   0.0000       0.319228         8.6866 
  82   0.0000       0.321540         8.7495 
  83   0.0000       0.324447         8.8286 
  84   0.0000       0.328943         8.9510 
  85   0.0000       0.339302         9.2329 
  86   0.0000       0.342215         9.3121 
  87   0.0000       0.358607         9.7582 
  88   0.0000       0.367256         9.9936 
  89   0.0000       0.371664        10.1135 
  90   0.0000       0.383057        10.4235 
  91   0.0000       0.385967        10.5027 
  92   0.0000       0.397312        10.8114 
  93   0.0000       0.407939        11.1006 
  94   0.0000       0.424660        11.5556 
  95   0.0000       0.427252        11.6261 
  96   0.0000       0.430710        11.7202 
  97   0.0000       0.439039        11.9469 
  98   0.0000       0.445484        12.1222 
  99   0.0000       0.462948        12.5974 
 100   0.0000       0.472137        12.8475 
 101   0.0000       0.477892        13.0041 
 102   0.0000       0.493357        13.4249 
 103   0.0000       0.499207        13.5841 
 104   0.0000       0.502073        13.6621 
 105   0.0000       0.511797        13.9267 
 106   0.0000       0.516545        14.0559 
 107   0.0000       0.534557        14.5460 
 108   0.0000       0.536556        14.6004 
 109   0.0000       0.547409        14.8957 
 110   0.0000       0.556404        15.1405 
 111   0.0000       0.560106        15.2412 
 112   0.0000       0.566282        15.4093 
 113   0.0000       0.574995        15.6464 
 114   0.0000       0.575816        15.6688 
 115   0.0000       0.583205        15.8698 
 116   0.0000       0.586288        15.9537 
 117   0.0000       0.595700        16.2098 
 118   0.0000       0.597080        16.2474 
 119   0.0000       0.608626        16.5615 
 120   0.0000       0.613770        16.7015 
 121   0.0000       0.624746        17.0002 
 122   0.0000       0.632584        17.2135 
 123   0.0000       0.636954        17.3324 
 124   0.0000       0.641442        17.4545 
 125   0.0000       0.651692        17.7335 
 126   0.0000       0.671459        18.2713 
 127   0.0000       0.678804        18.4712 
 128   0.0000       0.694299        18.8928 
 129   0.0000       0.697117        18.9695 
 130   0.0000       0.715306        19.4645 
 131   0.0000       0.725505        19.7420 
 132   0.0000       0.745492        20.2859 
 133   0.0000       0.752452        20.4753 
 134   0.0000       0.759988        20.6803 
 135   0.0000       0.766981        20.8706 
 136   0.0000       0.774920        21.0866 
 137   0.0000       0.778503        21.1842 
 138   0.0000       0.788449        21.4548 
 139   0.0000       0.810137        22.0449 
 140   0.0000       0.817811        22.2538 
 141   0.0000       0.826096        22.4792 
 142   0.0000       0.838580        22.8189 
 143   0.0000       0.842744        22.9322 
 144   0.0000       0.860223        23.4079 
 145   0.0000       0.881113        23.9763 
 146   0.0000       0.904831        24.6217 
 147   0.0000       0.920866        25.0580 
 148   0.0000       0.939949        25.5773 
 149   0.0000       0.948204        25.8020 
 150   0.0000       0.954494        25.9731 
 151   0.0000       0.971132        26.4258 
 152   0.0000       0.982077        26.7237 
 153   0.0000       0.994950        27.0740 
 154   0.0000       1.013053        27.5666 
 155   0.0000       1.016255        27.6537 
 156   0.0000       1.053472        28.6664 
 157   0.0000       1.063258        28.9327 
 158   0.0000       1.112928        30.2843 
 159   0.0000       1.141274        31.0557 
 160   0.0000       1.186169        32.2773 
 161   0.0000       1.203108        32.7382 
 162   0.0000       1.249498        34.0006 
 163   0.0000       1.271458        34.5981 
 164   0.0000       1.278642        34.7936 
 165   0.0000       1.291507        35.1437 
 166   0.0000       1.305094        35.5134 
 167   0.0000       1.313229        35.7348 
 168   0.0000       1.326507        36.0961 
 169   0.0000       1.356797        36.9203 
 170   0.0000       1.376726        37.4626 
 171   0.0000       1.396506        38.0009 
 172   0.0000       1.415981        38.5308 
 173   0.0000       1.426083        38.8057 
 174   0.0000       1.435165        39.0528 
 175   0.0000       1.449732        39.4492 
 176   0.0000       1.459454        39.7138 
 177   0.0000       1.466218        39.8978 
 178   0.0000       1.470818        40.0230 
 179   0.0000       1.487077        40.4654 
 180   0.0000       1.498237        40.7691 
 181   0.0000       1.505810        40.9752 
 182   0.0000       1.511697        41.1354 
 183   0.0000       1.517772        41.3007 
 184   0.0000       1.537578        41.8396 
 185   0.0000       1.563213        42.5372 
 186   0.0000       1.589770        43.2598 
 187   0.0000       1.592522        43.3347 
 188   0.0000       1.613380        43.9023 
 189   0.0000       1.628541        44.3149 
 190   0.0000       1.651501        44.9396 
 191   0.0000       1.664420        45.2912 
 192   0.0000       1.675641        45.5965 
 193   0.0000       1.685225        45.8573 
 194   0.0000       1.691274        46.0219 
 195   0.0000       1.700103        46.2622 
 196   0.0000       1.725604        46.9561 
 197   0.0000       1.739719        47.3402 
 198   0.0000       1.775221        48.3062 
 199   0.0000       1.817027        49.4438 
 200   0.0000       1.827747        49.7355 
 201   0.0000       1.836168        49.9647 
 202   0.0000       1.853632        50.4399 
 203   0.0000       1.860283        50.6209 
 204   0.0000       1.890059        51.4311 
 205   0.0000       1.903033        51.7842 
 206   0.0000       1.906847        51.8879 
 207   0.0000       1.929649        52.5084 
 208   0.0000       1.950065        53.0640 
 209   0.0000       1.973777        53.7092 
 210   0.0000       1.980807        53.9005 
 211   0.0000       1.998111        54.3714 
 212   0.0000       2.012378        54.7596 
 213   0.0000       2.027284        55.1652 
 214   0.0000       2.040304        55.5195 
 215   0.0000       2.065230        56.1978 
 216   0.0000       2.068859        56.2965 
 217   0.0000       2.086861        56.7864 
 218   0.0000       2.101199        57.1765 
 219   0.0000       2.106992        57.3342 
 220   0.0000       2.139814        58.2273 
 221   0.0000       2.176898        59.2364 
 222   0.0000       2.195456        59.7414 
 223   0.0000       2.216083        60.3027 
 224   0.0000       2.227591        60.6158 
 225   0.0000       2.259042        61.4716 
 226   0.0000       2.271451        61.8093 
 227   0.0000       2.309682        62.8496 
 228   0.0000       2.362854        64.2965 
 229   0.0000       2.378672        64.7269 
 230   0.0000       2.459483        66.9259 
 231   0.0000       2.490008        67.7566 
 232   0.0000       2.506082        68.1940 
 233   0.0000       2.523189        68.6595 
 234   0.0000       2.580999        70.2326 
 235   0.0000       2.603912        70.8560 
 236   0.0000       2.649820        72.1053 
 237   0.0000       2.654457        72.2314 
 238   0.0000       2.678371        72.8822 
 239   0.0000       2.746824        74.7449 
 240   0.0000       2.772469        75.4427 
 241   0.0000       2.816209        76.6329 
 242   0.0000       2.841516        77.3216 
 243   0.0000       2.931512        79.7705 
 244   0.0000       2.969054        80.7921 
 245   0.0000       2.995621        81.5150 
 246   0.0000       3.058534        83.2269 
 247   0.0000       3.259989        88.7088 
 248   0.0000       3.341498        90.9268 
 249   0.0000       3.374562        91.8265 
 250   0.0000       3.388001        92.1922 
 251   0.0000       3.479029        94.6692 
 252   0.0000       3.525783        95.9414 
 253   0.0000       3.640384        99.0599 
 254   0.0000       3.967040       107.9486 
 255   0.0000       4.411435       120.0412 

                    ********************************
                    * MULLIKEN POPULATION ANALYSIS *
                    ********************************

-----------------------
MULLIKEN ATOMIC CHARGES
-----------------------
   0 C :    0.939954
   1 C :    0.382648
   2 C :    1.104621
   3 C :    0.400405
   4 C :    1.223363
   5 C :   -0.041407
   6 O :   -0.580521
   7 C :    0.630420
   8 H :   -0.274254
   9 H :   -0.100930
  10 H :   -0.274086
  11 H :    0.151925
  12 H :   -0.781750
  13 H :   -0.763740
  14 H :   -0.962661
  15 H :   -1.053988
Sum of atomic charges:   -0.0000000

--------------------------------
MULLIKEN REDUCED ORBITAL CHARGES
--------------------------------
  0 C s       :    63.053427  s :    63.053427
      pz      :     2.392093  p :     6.370766
      px      :     2.024263
      py      :     1.954409
      dz2     :     0.007154  d :    -0.240589
      dxz     :    -0.006676
      dyz     :    -0.021555
      dx2y2   :    -0.098937
      dxy     :    -0.120574
  1 C s       :    62.879396  s :    62.879396
      pz      :     2.260223  p :     6.480193
      px      :     2.066902
      py      :     2.153068
      dz2     :     0.015301  d :    -0.162341
      dxz     :    -0.010342
      dyz     :    -0.014349
      dx2y2   :    -0.102043
      dxy     :    -0.050907
  2 C s       :    61.383315  s :    61.383315
      pz      :     2.328155  p :     4.520566
      px      :     1.283411
      py      :     0.909001
      dz2     :     0.001912  d :    -0.536210
      dxz     :    -0.049794
      dyz     :    -0.044204
      dx2y2   :    -0.196489
      dxy     :    -0.247634
  3 C s       :    66.659653  s :    66.659653
      pz      :     1.834264  p :     1.917282
      px      :     0.235367
      py      :    -0.152350
      dz2     :     0.031009  d :    -0.613246
      dxz     :    -0.032495
      dyz     :     0.007153
      dx2y2   :    -0.392779
      dxy     :    -0.226133
  4 C s       :    63.068823  s :    63.068823
      pz      :     2.190273  p :     4.151293
      px      :     0.640273
      py      :     1.320746
      dz2     :     0.010857  d :    -0.695326
      dxz     :    -0.029700
      dyz     :    -0.082528
      dx2y2   :    -0.268307
      dxy     :    -0.325649
  5 C s       :    65.387428  s :    65.387428
      pz      :     2.328665  p :     5.614341
      px      :     2.011523
      py      :     1.274152
      dz2     :     0.025765  d :    -0.084154
      dxz     :    -0.002893
      dyz     :     0.002716
      dx2y2   :    -0.061300
      dxy     :    -0.048443
  6 O s       :   174.867398  s :   174.867398
      pz      :    24.333127  p :    64.346350
      px      :    21.790997
      py      :    18.222226
      dz2     :     0.009293  d :     0.050306
      dxz     :     0.016143
      dyz     :     0.005146
      dx2y2   :     0.008348
      dxy     :     0.011377
  7 C s       :    68.858536  s :    68.858536
      pz      :     2.574158  p :     6.751038
      px      :     2.018004
      py      :     2.158877
      dz2     :    -0.036763  d :    -0.199766
      dxz     :    -0.008389
      dyz     :    -0.057588
      dx2y2   :    -0.043142
      dxy     :    -0.053883
  8 H s       :     0.522660  s :     0.522660
      pz      :    -0.019350  p :    -0.018034
      px      :     0.004741
      py      :    -0.003426
  9 H s       :     0.586450  s :     0.586450
      pz      :     0.001422  p :    -0.013253
      px      :     0.002079
      py      :    -0.016754
 10 H s       :     0.471660  s :     0.471660
      pz      :    -0.027545  p :    -0.027697
      px      :    -0.014859
      py      :     0.014707
 11 H s       :     0.391871  s :     0.391871
      pz      :     0.027682  p :     0.077173
      px      :     0.011475
      py      :     0.038015
 12 H s       :     0.155700  s :     0.155700
      pz      :     0.001291  p :    -0.094792
      px      :    -0.054415
      py      :    -0.041668
 13 H s       :     0.180171  s :     0.180171
      pz      :     0.003628  p :    -0.070222
      px      :    -0.019865
      py      :    -0.053986
 14 H s       :     0.052731  s :     0.052731
      pz      :    -0.000023  p :    -0.082241
      px      :    -0.060467
      py      :    -0.021751
 15 H s       :     0.120706  s :     0.120706
      pz      :     0.005916  p :    -0.063818
      px      :    -0.006920
      py      :    -0.062814


                     *******************************
                     * LOEWDIN POPULATION ANALYSIS *
                     *******************************

----------------------
LOEWDIN ATOMIC CHARGES
----------------------
   0 C :   -0.186909
   1 C :   -0.238807
   2 C :   -0.203732
   3 C :   -0.954977
   4 C :   -0.149894
   5 C :   -0.851436
   6 O :    0.535380
   7 C :   -0.230704
   8 H :    0.290977
   9 H :    0.308385
  10 H :    0.292525
  11 H :    0.173782
  12 H :    0.301031
  13 H :    0.299087
  14 H :    0.305489
  15 H :    0.309805

-------------------------------
LOEWDIN REDUCED ORBITAL CHARGES
-------------------------------
  0 C s       :     2.169927  s :     2.169927
      pz      :     0.789430  p :     2.772666
      px      :     0.950817
      py      :     1.032418
      dz2     :     0.138023  d :     1.244316
      dxz     :     0.135993
      dyz     :     0.225279
      dx2y2   :     0.353119
      dxy     :     0.391902
  1 C s       :     2.193130  s :     2.193130
      pz      :     0.766723  p :     2.745988
      px      :     1.008142
      py      :     0.971123
      dz2     :     0.172040  d :     1.299689
      dxz     :     0.265027
      dyz     :     0.101546
      dx2y2   :     0.472393
      dxy     :     0.288683
  2 C s       :     2.170563  s :     2.170563
      pz      :     0.774964  p :     2.792479
      px      :     0.966523
      py      :     1.050992
      dz2     :     0.111133  d :     1.240690
      dxz     :     0.158559
      dyz     :     0.201570
      dx2y2   :     0.334413
      dxy     :     0.435016
  3 C s       :     2.154361  s :     2.154361
      pz      :     0.751840  p :     2.823050
      px      :     0.993590
      py      :     1.077619
      dz2     :     0.231869  d :     1.977566
      dxz     :     0.284089
      dyz     :     0.330432
      dx2y2   :     0.550368
      dxy     :     0.580809
  4 C s       :     2.150294  s :     2.150294
      pz      :     0.800106  p :     2.794598
      px      :     1.020794
      py      :     0.973698
      dz2     :     0.156360  d :     1.205002
      dxz     :     0.231923
      dyz     :     0.102449
      dx2y2   :     0.413401
      dxy     :     0.300868
  5 C s       :     2.144495  s :     2.144495
      pz      :     0.701737  p :     2.568183
      px      :     0.848652
      py      :     1.017794
      dz2     :     0.269795  d :     2.138758
      dxz     :     0.344310
      dyz     :     0.327854
      dx2y2   :     0.574050
      dxy     :     0.622749
  6 O s       :     2.843002  s :     2.843002
      pz      :     1.542969  p :     4.414261
      px      :     1.535861
      py      :     1.335431
      dz2     :     0.032375  d :     0.207356
      dxz     :     0.044772
      dyz     :     0.018924
      dx2y2   :     0.059930
      dxy     :     0.051356
  7 C s       :     2.263437  s :     2.263437
      pz      :     1.052039  p :     3.145154
      px      :     1.049823
      py      :     1.043292
      dz2     :     0.181646  d :     0.822113
      dxz     :     0.101679
      dyz     :     0.150206
      dx2y2   :     0.176670
      dxy     :     0.211912
  8 H s       :     0.401392  s :     0.401392
      pz      :     0.111028  p :     0.307632
      px      :     0.061528
      py      :     0.135076
  9 H s       :     0.390002  s :     0.390002
      pz      :     0.168286  p :     0.301613
      px      :     0.064471
      py      :     0.068856
 10 H s       :     0.399772  s :     0.399772
      pz      :     0.072721  p :     0.307703
      px      :     0.124714
      py      :     0.110268
 11 H s       :     0.365123  s :     0.365123
      pz      :     0.099410  p :     0.461095
      px      :     0.110130
      py      :     0.251555
 12 H s       :     0.398158  s :     0.398158
      pz      :     0.073454  p :     0.300811
      px      :     0.136381
      py      :     0.090976
 13 H s       :     0.403527  s :     0.403527
      pz      :     0.064346  p :     0.297386
      px      :     0.069181
      py      :     0.163859
 14 H s       :     0.396128  s :     0.396128
      pz      :     0.085511  p :     0.298384
      px      :     0.120405
      py      :     0.092468
 15 H s       :     0.392733  s :     0.392733
      pz      :     0.066995  p :     0.297462
      px      :     0.067575
      py      :     0.162893


                      *****************************
                      * MAYER POPULATION ANALYSIS *
                      *****************************

  NA   - Mulliken gross atomic population
  ZA   - Total nuclear charge
  QA   - Mulliken gross atomic charge
  VA   - Mayer's total valence
  BVA  - Mayer's bonded valence
  FA   - Mayer's free valence

  ATOM       NA         ZA         QA         VA         BVA        FA
  0 C      5.0600     6.0000     0.9400     2.0951     2.0951    -0.0000
  1 C      5.6174     6.0000     0.3826     3.1169     3.1169    -0.0000
  2 C      4.8954     6.0000     1.1046     0.3565     0.3565     0.0000
  3 C      5.5996     6.0000     0.4004     4.5208     4.5208    -0.0000
  4 C      4.7766     6.0000     1.2234    -0.5412    -0.5412    -0.0000
  5 C      6.0414     6.0000    -0.0414     3.5187     3.5187    -0.0000
  6 O      8.5805     8.0000    -0.5805     1.4595     1.4595     0.0000
  7 C      5.3696     6.0000     0.6304     3.3751     3.3751     0.0000
  8 H      1.2743     1.0000    -0.2743     0.7780     0.7780    -0.0000
  9 H      1.1009     1.0000    -0.1009     0.8204     0.8204    -0.0000
 10 H      1.2741     1.0000    -0.2741     0.7530     0.7530     0.0000
 11 H      0.8481     1.0000     0.1519     0.9866     0.9866    -0.0000
 12 H      1.7818     1.0000    -0.7818     0.1807     0.1807     0.0000
 13 H      1.7637     1.0000    -0.7637     0.2708     0.2708    -0.0000
 14 H      1.9627     1.0000    -0.9627    -0.1082    -0.1082    -0.0000
 15 H      2.0540     1.0000    -1.0540    -0.2346    -0.2346     0.0000

  Mayer bond orders larger than 0.1
B(  0-C ,  1-C ) :   1.6432 B(  0-C ,  2-C ) :  -0.2247 B(  0-C ,  3-C ) :   0.2101 
B(  0-C ,  4-C ) :  -0.2887 B(  0-C ,  5-C ) :   1.3893 B(  0-C ,  6-O ) :  -0.1192 
B(  0-C , 12-H ) :  -0.7099 B(  0-C , 13-H ) :   0.3899 B(  1-C ,  2-C ) :   1.4269 
B(  1-C ,  3-C ) :  -0.3886 B(  1-C ,  5-C ) :  -0.2094 B(  1-C ,  7-C ) :   0.4892 
B(  1-C , 13-H ) :  -0.3259 B(  1-C , 14-H ) :   0.3891 B(  2-C ,  3-C ) :   0.7571 
B(  2-C ,  4-C ) :  -0.5270 B(  2-C ,  5-C ) :   0.1282 B(  2-C ,  7-C ) :  -0.6922 
B(  2-C , 13-H ) :   0.3576 B(  2-C , 14-H ) :  -0.8538 B(  3-C ,  4-C ) :   0.8303 
B(  3-C ,  7-C ) :   1.5137 B(  3-C ,  8-H ) :   0.3173 B(  3-C ,  9-H ) :   0.2769 
B(  3-C , 10-H ) :   0.2666 B(  3-C , 14-H ) :   0.2749 B(  3-C , 15-H ) :   0.4157 
B(  4-C ,  5-C ) :   0.5423 B(  4-C ,  6-O ) :   0.2142 B(  4-C ,  7-C ) :  -0.6300 
B(  4-C , 12-H ) :   0.1317 B(  4-C , 15-H ) :  -0.9713 B(  5-C ,  6-O ) :   0.3741 
B(  5-C ,  7-C ) :   0.5052 B(  5-C , 12-H ) :   0.7280 B(  5-C , 13-H ) :  -0.1316 
B(  5-C , 15-H ) :   0.3813 B(  6-O , 11-H ) :   1.0196 B(  7-C ,  8-H ) :   0.5925 
B(  7-C ,  9-H ) :   0.8653 B(  7-C , 10-H ) :   0.6418 B(  7-C , 14-H ) :   0.1145 
B(  9-H , 10-H ) :  -0.1293 

-------
TIMINGS
-------

Total SCF time: 0 days 0 hours 6 min 39 sec 

Total time                  ....     399.639 sec
Sum of individual times     ....     399.570 sec  (100.0%)

Fock matrix formation       ....     394.864 sec  ( 98.8%)
  XC integration            ....      15.056 sec  (  3.8% of F)
    Basis function eval.    ....       6.769 sec  ( 45.0% of XC)
    Density eval.           ....       1.818 sec  ( 12.1% of XC)
    XC-Functional eval.     ....       0.242 sec  (  1.6% of XC)
    XC-Potential eval.      ....       6.121 sec  ( 40.7% of XC)
Diagonalization             ....       0.066 sec  (  0.0%)
Density matrix formation    ....       0.011 sec  (  0.0%)
Population analysis         ....       0.025 sec  (  0.0%)
Initial guess               ....       1.675 sec  (  0.4%)
Orbital Transformation      ....       0.000 sec  (  0.0%)
Orbital Orthonormalization  ....       0.000 sec  (  0.0%)
DIIS solution               ....       0.016 sec  (  0.0%)
SOSCF solution              ....       0.046 sec  (  0.0%)
Grid generation             ....       2.867 sec  (  0.7%)

-------------------------   --------------------
FINAL SINGLE POINT ENERGY      -346.617678413284
-------------------------   --------------------


                            ***************************************
                            *     ORCA property calculations      *
                            ***************************************

                                    ---------------------
                                    Active property flags
                                    ---------------------
   (+) Dipole Moment
   (+) Chemical Shifts


------------------------------------------------------------------------------
                       ORCA ELECTRIC PROPERTIES CALCULATION
------------------------------------------------------------------------------

Dipole Moment Calculation                       ... on
Quadrupole Moment Calculation                   ... off
Polarizability Calculation                      ... off
GBWName                                         ... /home/jan/SoftwareDevelopment/ORCAunleashed/output/meta_cresol/meta_cresol.gbw
Electron density file                           ... /home/jan/SoftwareDevelopment/ORCAunleashed/output/meta_cresol/meta_cresol.scfp.tmp

-------------
DIPOLE MOMENT
-------------
                                X             Y             Z
Electronic contribution:     -5.09403      -0.90263       2.29486
Nuclear contribution   :      5.49710       1.38269      -2.42124
                        -----------------------------------------
Total Dipole Moment    :      0.40308       0.48006      -0.12638
                        -----------------------------------------
Magnitude (a.u.)       :      0.63945
Magnitude (Debye)      :      1.62536

------------------------------------------------------------------------------
                                ORCA EPR/NMR CALCULATION
------------------------------------------------------------------------------

GBWName                      ... /home/jan/SoftwareDevelopment/ORCAunleashed/output/meta_cresol/meta_cresol.gbw
Electron density file        ... /home/jan/SoftwareDevelopment/ORCAunleashed/output/meta_cresol/meta_cresol.scfp.tmp
Spin density file            ... /home/jan/SoftwareDevelopment/ORCAunleashed/output/meta_cresol/meta_cresol.scfr.tmp
Treatment of gauge           ... GIAO (approximations 1/2el = 0,3)
Details of the CP(SCF) procedure:
       Solver   = POPLE   
       MaxIter  =    64   
       Tolerance=    1.000e-06
       Op-0     =   0- 28 =>  29-255
Multiplicity                 ... 1
g-tensor                     ... 0
NMR chemical shifts          ... 1
Number of nuclei for epr/nmr ... 16
   Nucleus:   0C 
       Hyperfine : Isotope=   13 I=   0.500 P= 134.188
       Quadrupole: Isotope=   13 I=   0.500 Q=   0.000
       Spin-Orbit: Zeff=   3.600
       rho(0)=N f(grad)=N a(iso)=N a(dip)=N a(orb)=N sigma(nmr)=Y
   Nucleus:   1C 
       Hyperfine : Isotope=   13 I=   0.500 P= 134.188
       Quadrupole: Isotope=   13 I=   0.500 Q=   0.000
       Spin-Orbit: Zeff=   3.600
       rho(0)=N f(grad)=N a(iso)=N a(dip)=N a(orb)=N sigma(nmr)=Y
   Nucleus:   2C 
       Hyperfine : Isotope=   13 I=   0.500 P= 134.188
       Quadrupole: Isotope=   13 I=   0.500 Q=   0.000
       Spin-Orbit: Zeff=   3.600
       rho(0)=N f(grad)=N a(iso)=N a(dip)=N a(orb)=N sigma(nmr)=Y
   Nucleus:   3C 
       Hyperfine : Isotope=   13 I=   0.500 P= 134.188
       Quadrupole: Isotope=   13 I=   0.500 Q=   0.000
       Spin-Orbit: Zeff=   3.600
       rho(0)=N f(grad)=N a(iso)=N a(dip)=N a(orb)=N sigma(nmr)=Y
   Nucleus:   4C 
       Hyperfine : Isotope=   13 I=   0.500 P= 134.188
       Quadrupole: Isotope=   13 I=   0.500 Q=   0.000
       Spin-Orbit: Zeff=   3.600
       rho(0)=N f(grad)=N a(iso)=N a(dip)=N a(orb)=N sigma(nmr)=Y
   Nucleus:   5C 
       Hyperfine : Isotope=   13 I=   0.500 P= 134.188
       Quadrupole: Isotope=   13 I=   0.500 Q=   0.000
       Spin-Orbit: Zeff=   3.600
       rho(0)=N f(grad)=N a(iso)=N a(dip)=N a(orb)=N sigma(nmr)=Y
   Nucleus:   6O 
       Hyperfine : Isotope=   17 I=   2.500 P= -72.357
       Quadrupole: Isotope=   17 I=   2.500 Q=  -0.026
       Spin-Orbit: Zeff=   5.600
       rho(0)=N f(grad)=N a(iso)=N a(dip)=N a(orb)=N sigma(nmr)=Y
   Nucleus:   7C 
       Hyperfine : Isotope=   13 I=   0.500 P= 134.188
       Quadrupole: Isotope=   13 I=   0.500 Q=   0.000
       Spin-Orbit: Zeff=   3.600
       rho(0)=N f(grad)=N a(iso)=N a(dip)=N a(orb)=N sigma(nmr)=Y
   Nucleus:   8H 
       Hyperfine : Isotope=    1 I=   0.500 P= 533.552
       Quadrupole: Isotope=    2 I=   1.000 Q=   0.003
       Spin-Orbit: Zeff=   1.000
       rho(0)=N f(grad)=N a(iso)=N a(dip)=N a(orb)=N sigma(nmr)=Y
   Nucleus:   9H 
       Hyperfine : Isotope=    1 I=   0.500 P= 533.552
       Quadrupole: Isotope=    2 I=   1.000 Q=   0.003
       Spin-Orbit: Zeff=   1.000
       rho(0)=N f(grad)=N a(iso)=N a(dip)=N a(orb)=N sigma(nmr)=Y
   Nucleus:  10H 
       Hyperfine : Isotope=    1 I=   0.500 P= 533.552
       Quadrupole: Isotope=    2 I=   1.000 Q=   0.003
       Spin-Orbit: Zeff=   1.000
       rho(0)=N f(grad)=N a(iso)=N a(dip)=N a(orb)=N sigma(nmr)=Y
   Nucleus:  11H 
       Hyperfine : Isotope=    1 I=   0.500 P= 533.552
       Quadrupole: Isotope=    2 I=   1.000 Q=   0.003
       Spin-Orbit: Zeff=   1.000
       rho(0)=N f(grad)=N a(iso)=N a(dip)=N a(orb)=N sigma(nmr)=Y
   Nucleus:  12H 
       Hyperfine : Isotope=    1 I=   0.500 P= 533.552
       Quadrupole: Isotope=    2 I=   1.000 Q=   0.003
       Spin-Orbit: Zeff=   1.000
       rho(0)=N f(grad)=N a(iso)=N a(dip)=N a(orb)=N sigma(nmr)=Y
   Nucleus:  13H 
       Hyperfine : Isotope=    1 I=   0.500 P= 533.552
       Quadrupole: Isotope=    2 I=   1.000 Q=   0.003
       Spin-Orbit: Zeff=   1.000
       rho(0)=N f(grad)=N a(iso)=N a(dip)=N a(orb)=N sigma(nmr)=Y
   Nucleus:  14H 
       Hyperfine : Isotope=    1 I=   0.500 P= 533.552
       Quadrupole: Isotope=    2 I=   1.000 Q=   0.003
       Spin-Orbit: Zeff=   1.000
       rho(0)=N f(grad)=N a(iso)=N a(dip)=N a(orb)=N sigma(nmr)=Y
   Nucleus:  15H 
       Hyperfine : Isotope=    1 I=   0.500 P= 533.552
       Quadrupole: Isotope=    2 I=   1.000 Q=   0.003
       Spin-Orbit: Zeff=   1.000
       rho(0)=N f(grad)=N a(iso)=N a(dip)=N a(orb)=N sigma(nmr)=Y
Using LibInt in CPSCF-CP

Forming RHS of the CP-SCF equations         ... 
Calculating right hand sides for GIAO treatment (new)  ... 
  Entering RightHandSide GIAO. ScalHFX=    0.2000 NeedHFX=1
     -> 1-electron GIAO integrals will be done analytically
     -> SCF done analytically but RIJK requested in GIAOs
     -> using RIJK
     Making grid for GIAO integrations   ... done
     Test of existence of the V matrix   = 0
     Test of existence of the VCD matrix = 0
     Test of existence of the VO matrix  = 0
     Warning: RI is turned on for GIAO but the V matrix or its Cholesky decomposition are not found - making it
     Calculating V           ... done
     Cholesky decomposition  ... done
     Storing V and VCD       ... done
     Cholesky decomposition-2... done
     Storing VO              ... done
  Getting the pre-screening matrix        ... done
  Extracting occupied and virtual blocks  ... 
  Operator  0  NO=  29 NV= 227 
  One-electron GIAO integrals             ...   done
  Transforming and RHS contribution       ...   done
  Projecting overlap derivatives          ...   done
  Building G(dS/dB_ij)                    ...   done
  Transforming to MO basis/RHS contribs.  ...   done
  Calculating F[B](P)                     ...  (RI-JK)
---------------------
RI-GIAO-TRANSFORMATION (AUX index driven)
----------------------

Dimension of the orbital-basis         ... 256
Dimension of the aux-basis             ... 1720
Number of (i,a) MOs                    ... 29,227
Number of ij,ia,ab pairs               ... 841,6583,51529
Transformation of internal MOs         ...    0-  28
Transformation of internal/external MOs...    0-  28 to   29- 255

Mapping shells                                 ... done
Making shell addresses                         ... done
Figuring out significant basis function pairs  ... done
  N(Pairs)         ... 32896
  N(Strong pairs)  ... 32381
  Mem-Available    ... 1024 MB
  (p,q) per batch  ... 9749
  N(Batches)       ... 4
Preparing matrix containers                    ... done
Preparing AO buffer                            ... done
Calculating AO integrals and transforming AUX  ... done
Finished RI-GIAO integral generation and aux-index transformation in 26.775 sec
Mapping the MO pairs                            ... done
Getting memory                                  ... done
Second Phase: sorting and transformation of MO indices
Memory available                       ... 1024 MB 
Max. # Aux fcns treated in a batch     ... 1018    
Initializing the MO transformation process      ... done
Batch   0: Q=   0 ... 1017
   Reading      ... done
   Transforming ... done
Batch   1: Q=1018 ... 1719
   Reading      ... done
   Transforming ... done
Finished transformation of the MO indices in 23.144 sec
Initializing the sorting process                ... done

IJ-Resorting
# of internal pairs                    ... 841
# batches for internal pairs           ... 1
   (0) Reading      ... done
   (0) Writing      ... done
   (1) Reading      ... done
   (1) Writing      ... done
   (2) Reading      ... done
   (2) Writing      ... done
   (3) Reading      ... done
   (3) Writing      ... done
(ij|v) resorting done in     0.222 sec

IA-Resorting
# of internal orbitals                 ... 29
# batches for internal orbitals        ... 1
   (0) Reading      ... done
   (0) Writing      ... done
   (1) Reading      ... done
   (1) Writing      ... done
   (2) Reading      ... done
   (2) Writing      ... done
   (3) Reading      ... done
   (3) Writing      ... done
(ia|v) resorting done in     2.095 sec

  Resorting completed in     2.321 sec
RI-GIAO-Integral transformation completed in    52.286 sec
Reading RI-integrals ... done
Doing RI-JK          ... done
 => dG/dB done
  RI-JK GIAO contributions                ...   done
  DFT XC-terms                            ... done
  Transforming to MO basis/RHS contribs.  ... done
  GIAO profiling information: 
    Total GIAO time               ...     207.9 sec
       Grid setup                 ...       0.6 sec (  0.3%)
       RI-V-matrix setup          ...       0.4 sec (  0.2%)
       GIAO 1-electron integrals  ...       0.1 sec (  0.0%)
       GIAO G(dS/dB) terms        ...      44.3 sec ( 21.3%)
       GIAO RI-JK                 ...     105.3 sec ( 50.7%)
       GIAO RI integral trafo     ...      52.3 sec ( 25.1%)
       GIAO XC-terms              ...       5.0 sec (  2.4%)
       Right hand side assembly   ...       0.0 sec (  0.0%)

  GIAO right hand side done

     CP-SCF ITERATION   0: 
     CP-SCF ITERATION   1:      0.058602640
     CP-SCF ITERATION   2:      0.000170947
     CP-SCF ITERATION   3:      0.000000413

Forming final perturbed densities           ... done
Transforming perturbed density to AO basis  ...  done

Magnetic field perturbation calculated in 377.919 sec

---------------
CHEMICAL SHIFTS
---------------

Note: using conversion factor for au to ppm alpha^2/2 =   26.625677252 
Doing GIAO para- and diamagnetic shielding integrals analytically     ...done
Doing remaining GIAO terms numerically                                ...done
 --------------
 Nucleus   0C :
 --------------

Diamagnetic contribution to the shielding tensor (ppm) : 
           318.508        -61.904       114.360
           -18.126        258.595       -47.177
            79.771        -34.277       514.344

Paramagnetic contribution to the shielding tensor (ppm): 
          -274.946         26.565       -59.208
           -15.459       -203.082        41.479
           -27.612         27.450      -364.847

Total shielding tensor (ppm): 
            43.562        -35.339        55.152
           -33.585         55.512        -5.698
            52.159         -6.828       149.497


 Diagonalized sT*s matrix:
 
 sDSO           252.591          275.398          563.458  iso=     363.815
 sPSO          -248.836         -205.679         -388.360  iso=    -280.958
        ---------------  ---------------  ---------------
 Total            3.754           69.719          175.097  iso=      82.857

 --------------
 Nucleus   1C :
 --------------

Diamagnetic contribution to the shielding tensor (ppm) : 
           239.725         12.539        -7.469
            -6.491        245.255         9.103
           -39.147         42.602       242.879

Paramagnetic contribution to the shielding tensor (ppm): 
          -165.531        -31.722        52.520
            -8.870       -281.633       -40.525
            84.617        -74.395       -93.110

Total shielding tensor (ppm): 
            74.194        -19.183        45.050
           -15.362        -36.378       -31.423
            45.470        -31.793       149.769


 Diagonalized sT*s matrix:
 
 sDSO           249.463          261.862          216.533  iso=     242.620
 sPSO          -289.748         -210.980          -39.545  iso=    -180.091
        ---------------  ---------------  ---------------
 Total          -40.285           50.882          176.988  iso=      62.528

 --------------
 Nucleus   2C :
 --------------

Diamagnetic contribution to the shielding tensor (ppm) : 
           302.021        -31.037        26.201
           -14.635        229.192       -17.568
           -27.201        -86.477       355.875

Paramagnetic contribution to the shielding tensor (ppm): 
          -261.369         58.528        40.797
            45.445       -179.187       -18.773
           100.793         57.982      -227.546

Total shielding tensor (ppm): 
            40.652         27.491        66.998
            30.811         50.005       -36.341
            73.592        -28.495       128.329


 Diagonalized sT*s matrix:
 
 sDSO           281.896          249.848          355.344  iso=     295.696
 sPSO          -303.611         -178.298         -186.194  iso=    -222.701
        ---------------  ---------------  ---------------
 Total          -21.715           71.550          169.150  iso=      72.995

 --------------
 Nucleus   3C :
 --------------

Diamagnetic contribution to the shielding tensor (ppm) : 
            51.199        -36.377      -226.307
            13.262        154.627        80.441
          -161.668        -24.011      -306.467

Paramagnetic contribution to the shielding tensor (ppm): 
           -47.384          1.823       301.290
           -50.497       -143.937       -92.113
           233.950          9.772       445.295

Total shielding tensor (ppm): 
             3.815        -34.554        74.984
           -37.235         10.690       -11.673
            72.282        -14.239       138.828


 Diagonalized sT*s matrix:
 
 sDSO           159.971          122.597         -383.209  iso=     -33.547
 sPSO          -139.096         -165.635          558.705  iso=      84.658
        ---------------  ---------------  ---------------
 Total           20.876          -43.038          175.496  iso=      51.111

 --------------
 Nucleus   4C :
 --------------

Diamagnetic contribution to the shielding tensor (ppm) : 
           275.892        -11.494        98.092
            43.668        305.628       -32.989
            81.089        -58.334       405.120

Paramagnetic contribution to the shielding tensor (ppm): 
          -174.629          6.030       -76.043
           -56.996       -297.461        16.235
           -52.623         40.082      -272.653

Total shielding tensor (ppm): 
           101.263         -5.464        22.049
           -13.327          8.166       -16.754
            28.467        -18.252       132.467


 Diagonalized sT*s matrix:
 
 sDSO           296.865          233.682          456.093  iso=     328.880
 sPSO          -291.381         -146.593         -306.770  iso=    -248.248
        ---------------  ---------------  ---------------
 Total            5.484           87.089          149.323  iso=      80.632

 --------------
 Nucleus   5C :
 --------------

Diamagnetic contribution to the shielding tensor (ppm) : 
           222.384         -7.862       -26.672
            30.283        258.535       -20.001
            18.536         45.972       175.737

Paramagnetic contribution to the shielding tensor (ppm): 
          -216.229         31.085        86.645
           -11.285       -246.882        -8.749
            39.683        -75.421       -82.338

Total shielding tensor (ppm): 
             6.155         23.223        59.973
            18.998         11.654       -28.750
            58.219        -29.449        93.399


 Diagonalized sT*s matrix:
 
 sDSO           250.321          228.745          177.590  iso=     218.885
 sPSO          -223.409         -270.191          -51.849  iso=    -181.816
        ---------------  ---------------  ---------------
 Total           26.912          -41.446          125.742  iso=      37.069

 --------------
 Nucleus   6O :
 --------------

Diamagnetic contribution to the shielding tensor (ppm) : 
           447.529         13.210       105.343
           -23.529        395.473       -42.355
           125.209          8.616       590.356

Paramagnetic contribution to the shielding tensor (ppm): 
          -218.190        -47.540      -116.584
           -18.884       -194.367        58.657
          -134.630          3.477      -365.781

Total shielding tensor (ppm): 
           229.339        -34.330       -11.241
           -42.413        201.106        16.302
            -9.421         12.093       224.575


 Diagonalized sT*s matrix:
 
 sDSO           397.429          652.208          383.722  iso=     477.786
 sPSO          -223.773         -434.124         -120.440  iso=    -259.446
        ---------------  ---------------  ---------------
 Total          173.656          218.084          263.282  iso=     218.340

 --------------
 Nucleus   7C :
 --------------

Diamagnetic contribution to the shielding tensor (ppm) : 
            71.281        187.179       -56.306
            -8.994        270.882        73.189
          -236.786        399.033        84.982

Paramagnetic contribution to the shielding tensor (ppm): 
           110.366       -175.930        45.413
            23.378        -97.562       -73.032
           217.707       -402.634        68.800

Total shielding tensor (ppm): 
           181.647         11.248       -10.893
            14.384        173.320         0.157
           -19.079         -3.600       153.783


 Diagonalized sT*s matrix:
 
 sDSO          -102.992          335.279          194.859  iso=     142.382
 sPSO           249.707         -168.533            0.430  iso=      27.201
        ---------------  ---------------  ---------------
 Total          146.715          166.745          195.289  iso=     169.583

 --------------
 Nucleus   8H :
 --------------

Diamagnetic contribution to the shielding tensor (ppm) : 
           -49.411         84.913       -89.628
            62.266         28.340        15.566
          -169.589        166.109      -132.504

Paramagnetic contribution to the shielding tensor (ppm): 
            79.319        -81.252        89.197
           -60.841          3.283       -12.157
           168.913       -163.420       159.440

Total shielding tensor (ppm): 
            29.908          3.661        -0.431
             1.425         31.623         3.409
            -0.676          2.689        26.936


 Diagonalized sT*s matrix:
 
 sDSO          -251.545           34.588           63.382  iso=     -51.192
 sPSO           276.403           -5.148          -29.212  iso=      80.681
        ---------------  ---------------  ---------------
 Total           24.857           29.440           34.170  iso=      29.489

 --------------
 Nucleus   9H :
 --------------

Diamagnetic contribution to the shielding tensor (ppm) : 
           -17.006        -82.335       -59.149
             4.807         42.433        18.939
           -65.357       -152.469       -92.547

Paramagnetic contribution to the shielding tensor (ppm): 
            44.089         83.218        57.462
            -3.689        -14.307       -21.610
            62.726        149.381       124.708

Total shielding tensor (ppm): 
            27.083          0.883        -1.687
             1.118         28.126        -2.671
            -2.632         -3.088        32.162


 Diagonalized sT*s matrix:
 
 sDSO           -88.029            8.534           12.376  iso=     -22.373
 sPSO           114.312           18.125           22.053  iso=      51.497
        ---------------  ---------------  ---------------
 Total           26.283           26.659           34.429  iso=      29.123

 --------------
 Nucleus  10H :
 --------------

Diamagnetic contribution to the shielding tensor (ppm) : 
            33.936         93.535        36.987
           -40.150        -17.007         1.675
            31.395        198.461        91.315

Paramagnetic contribution to the shielding tensor (ppm): 
            -0.266        -95.876       -38.117
            39.553         46.528        -1.899
           -31.823       -197.926       -66.478

Total shielding tensor (ppm): 
            33.670         -2.340        -1.130
            -0.598         29.521        -0.224
            -0.428          0.534        24.837


 Diagonalized sT*s matrix:
 
 sDSO            96.891           -2.000           13.353  iso=      36.081
 sPSO           -72.122           31.056           20.850  iso=      -6.739
        ---------------  ---------------  ---------------
 Total           24.769           29.056           34.203  iso=      29.343

 --------------
 Nucleus  11H :
 --------------

Diamagnetic contribution to the shielding tensor (ppm) : 
            51.458          2.170        20.774
            -4.098         40.080        -6.590
            31.633          0.369        72.672

Paramagnetic contribution to the shielding tensor (ppm): 
           -25.335         -2.944       -23.619
             5.958         -4.797         8.513
           -34.152          2.549       -50.730

Total shielding tensor (ppm): 
            26.123         -0.774        -2.845
             1.859         35.283         1.923
            -2.519          2.918        21.942


 Diagonalized sT*s matrix:
 
 sDSO            88.773           35.285           40.153  iso=      54.737
 sPSO           -68.529           -7.885           -4.448  iso=     -26.954
        ---------------  ---------------  ---------------
 Total           20.244           27.399           35.705  iso=      27.783

 --------------
 Nucleus  12H :
 --------------

Diamagnetic contribution to the shielding tensor (ppm) : 
            39.894          1.534        16.723
             0.885         38.787        -4.665
             3.833          1.381        69.276

Paramagnetic contribution to the shielding tensor (ppm): 
           -15.398         -2.748       -18.135
            -1.713        -11.765         5.972
            -5.462         -0.067       -46.368

Total shielding tensor (ppm): 
            24.496         -1.215        -1.412
            -0.828         27.022         1.307
            -1.630          1.314        22.908


 Diagonalized sT*s matrix:
 
 sDSO            71.047           38.974           37.937  iso=      49.319
 sPSO           -49.140          -14.465           -9.927  iso=     -24.511
        ---------------  ---------------  ---------------
 Total           21.907           24.509           28.010  iso=      24.809

 --------------
 Nucleus  13H :
 --------------

Diamagnetic contribution to the shielding tensor (ppm) : 
            42.575         -4.485        14.662
            -1.689         36.439        -2.636
             7.226         -2.029        67.542

Paramagnetic contribution to the shielding tensor (ppm): 
           -16.174          4.531       -16.795
             1.783        -12.839         2.927
            -9.221          2.405       -44.829

Total shielding tensor (ppm): 
            26.401          0.045        -2.133
             0.094         23.600         0.291
            -1.996          0.376        22.713


 Diagonalized sT*s matrix:
 
 sDSO            71.635           36.256           38.665  iso=      48.852
 sPSO           -49.905          -12.598          -11.340  iso=     -24.614
        ---------------  ---------------  ---------------
 Total           21.730           23.658           27.326  iso=      24.238

 --------------
 Nucleus  14H :
 --------------

Diamagnetic contribution to the shielding tensor (ppm) : 
            71.928        -19.601        40.087
            -6.905         43.585       -16.088
            43.261        -43.433       127.887

Paramagnetic contribution to the shielding tensor (ppm): 
           -47.045         22.205       -40.894
             8.970        -16.334        15.954
           -43.953         42.694      -105.712

Total shielding tensor (ppm): 
            24.883          2.604        -0.807
             2.065         27.251        -0.134
            -0.692         -0.740        22.174


 Diagonalized sT*s matrix:
 
 sDSO           149.182           52.805           41.414  iso=      81.133
 sPSO          -127.208          -29.243          -12.641  iso=     -56.364
        ---------------  ---------------  ---------------
 Total           21.974           23.562           28.773  iso=      24.769

 --------------
 Nucleus  15H :
 --------------

Diamagnetic contribution to the shielding tensor (ppm) : 
            46.213        -11.868        25.713
             2.958         50.379        -0.304
             7.027        -21.966        82.923

Paramagnetic contribution to the shielding tensor (ppm): 
           -17.822         11.959       -28.491
            -2.789        -27.406         0.445
           -10.018         22.532       -58.958

Total shielding tensor (ppm): 
            28.391          0.092        -2.778
             0.169         22.973         0.141
            -2.991          0.566        23.966


 Diagonalized sT*s matrix:
 
 sDSO            89.598           49.540           40.378  iso=      59.839
 sPSO           -67.272          -26.350          -10.564  iso=     -34.729
        ---------------  ---------------  ---------------
 Total           22.326           23.190           29.814  iso=      25.110



--------------------------
CHEMICAL SHIELDING SUMMARY (ppm)
--------------------------


  Nucleus  Element    Isotropic     Anisotropy
  -------  -------  ------------   ------------
      0       C           82.857        138.360 
      1       C           62.528        171.689 
      2       C           72.995        144.233 
      3       C           51.111        186.577 
      4       C           80.632        103.036 
      5       C           37.069        133.009 
      6       O          218.340         67.412 
      7       C          169.583         38.559 
      8       H           29.489          7.021 
      9       H           29.123          7.958 
     10       H           29.343          7.290 
     11       H           27.783         11.883 
     12       H           24.809          4.802 
     13       H           24.238          4.632 
     14       H           24.769          6.006 
     15       H           25.110          7.056 



Timings for individual modules:

Sum of individual times         ...      919.437 sec (=  15.324 min)
GTO integral calculation        ...        0.380 sec (=   0.006 min)   0.0 %
SCF iterations                  ...      399.648 sec (=   6.661 min)  43.5 %
SCF-level EPR/NMR calculation   ...      519.409 sec (=   8.657 min)  56.5 %
                             ****ORCA TERMINATED NORMALLY****
TOTAL RUN TIME: 0 days 0 hours 15 minutes 19 seconds 561 msec
