
                                 *****************
                                 * O   R   C   A *
                                 *****************

           --- An Ab Initio, DFT and Semiempirical electronic structure package ---

                  #######################################################
                  #                        -***-                        #
                  #  Department of molecular theory and spectroscopy    #
                  #              Directorship: Frank Neese              #
                  # Max Planck Institute for Chemical Energy Conversion #
                  #                  D-45470 Muelheim/Ruhr              #
                  #                       Germany                       #
                  #                                                     #
                  #                  All rights reserved                #
                  #                        -***-                        #
                  #######################################################


                         Program Version 4.0.0.2 - RELEASE -


 With contributions from (in alphabetic order):
   Daniel Aravena         : Magnetic Properties
   Michael Atanasov       : Ab Initio Ligand Field Theory
   Ute Becker             : Parallelization
   Martin Brehm           : Molecular dynamics
   Dmytro Bykov           : SCF Hessian
   Vijay G. Chilkuri      : MRCI spin determinant printing
   Dipayan Datta          : RHF DLPNO-CCSD density
   Achintya Kumar Dutta   : EOM-CC, STEOM-CC
   Dmitry Ganyushin       : Spin-Orbit,Spin-Spin,Magnetic field MRCI
   Yang Guo               : DLPNO-NEVPT2, CIM, IAO-localization
   Andreas Hansen         : Spin unrestricted coupled pair/coupled cluster methods
   Lee Huntington         : MR-EOM, pCC
   Robert Izsak           : Overlap fitted RIJCOSX, COSX-SCS-MP3, EOM
   Christian Kollmar      : KDIIS, OOCD, Brueckner-CCSD(T), CCSD density
   Simone Kossmann        : Meta GGA functionals, TD-DFT gradient, OOMP2, MP2 Hessian
   Martin Krupicka        : AUTO-CI
   Dagmar Lenk            : GEPOL surface
   Dimitrios Liakos       : Extrapolation schemes; parallel MDCI
   Dimitrios Manganas     : ROCIS; embedding schemes
   Dimitrios Pantazis     : SARC Basis sets
   Taras Petrenko         : DFT Hessian,TD-DFT gradient, ASA, ECA, R-Raman, ABS, FL, XAS/XES, NRVS
   Peter Pinski           : DLPNO-MP2
   Christoph Reimann      : Effective Core Potentials
   Marius Retegan         : Local ZFS, SOC
   Christoph Riplinger    : Optimizer, TS searches, QM/MM, DLPNO-CCSD(T), (RO)-DLPNO pert. Triples
   Tobias Risthaus        : Range-separated hybrids, TD-DFT gradient, RPA, STAB
   Michael Roemelt        : Restricted open shell CIS
   Masaaki Saitow         : Open-shell DLPNO
   Barbara Sandhoefer     : DKH picture change effects
   Kantharuban Sivalingam : CASSCF convergence, NEVPT2, FIC-MRCI
   Georgi Stoychev        : AutoAux
   Boris Wezisla          : Elementary symmetry handling
   Frank Wennmohs         : Technical directorship


 We gratefully acknowledge several colleagues who have allowed us to
 interface, adapt or use parts of their codes:
   Stefan Grimme, W. Hujo, H. Kruse,             : VdW corrections, initial TS optimization,
                  C. Bannwarth                     DFT functionals, gCP, sTDA/sTD-DF
   Ed Valeev                                     : LibInt (2-el integral package), F12 methods
   Garnet Chan, S. Sharma, J. Yang, R. Olivares  : DMRG
   Ulf Ekstrom                                   : XCFun DFT Library
   Mihaly Kallay                                 : mrcc  (arbitrary order and MRCC methods)
   Jiri Pittner, Ondrej Demel                    : Mk-CCSD
   Frank Weinhold                                : gennbo (NPA and NBO analysis)
   Christopher J. Cramer and Donald G. Truhlar   : smd solvation model


 Your calculation uses the libint2 library for the computation of 2-el integrals
 For citations please refer to: http://libint.valeyev.net

 This ORCA versions uses:
   CBLAS   interface :  Fast vector & matrix operations
   LAPACKE interface :  Fast linear algebra routines
   SCALAPACK package :  Parallel linear algebra routines




*****************************************
The coordinations will be read from file: guess.xyz
*****************************************



Information: The global flag for chemical shieldings has been found
             ==>> will calculate the chemical shifts for all atoms in the system

Your calculation utilizes the basis: cc-pVDZ 
       H, B-Ne : Obtained from the ccRepo (grant-hill.group.shef.ac.uk/ccrepo) Feb. 2017
                 T. H. Dunning, Jr., J. Chem. Phys. 90, 1007 (1989)
            He : Obtained from the ccRepo (grant-hill.group.shef.ac.uk/ccrepo) Feb. 2017
                 D. E. Woon, T. H. Dunning, Jr., J. Chem. Phys. 100, 2975 (1994)
  Li-Be, Na-Mg : Obtained from the ccRepo (grant-hill.group.shef.ac.uk/ccrepo) Feb. 2017
                 B. P. Prascher, D. E. Woon, K. A. Peterson, T. H. Dunning, Jr., A. K. Wilson, Theor. Chem. Acc. 128, 69 (2011)
         Al-Ar : Obtained from the ccRepo (grant-hill.group.shef.ac.uk/ccrepo) Feb. 2017
                 D. E. Woon, T. H. Dunning, Jr., J. Chem. Phys. 98, 1358 (1993)
            Ca : Obtained from the Peterson Research Group Website (tyr0.chem.wsu.edu/~kipeters) Feb. 2017
                 J. Koput, K. A. Peterson, J. Phys. Chem. 106, 9595 (2002)
         Sc-Zn : Obtained from the ccRepo (grant-hill.group.shef.ac.uk/ccrepo) Feb. 2017
                 N. B. Balabanov, K. A. Peterson, J. Chem. Phys. 123, 064107 (2005)
                 N. B. Balabanov, K. A. Peterson, J. Chem. Phys. 125, 074110 (2006)
         Ga-Kr : Obtained from the ccRepo (grant-hill.group.shef.ac.uk/ccrepo) Feb. 2017
                 A. K. Wilson, D. E. Woon, K. A. Peterson, T. H. Dunning, Jr., J. Chem. Phys. 110, 7667 (1999)

Your calculation utilizes the auxiliary basis: def2/J
   F. Weigend, Phys. Chem. Chem. Phys. 8, 1057 (2006).

================================================================================
                                        WARNINGS
                       Please study these warnings very carefully!
================================================================================

Warning: TCutStore was < 0. Adjusted to Thresh (uncritical)

INFO   : the flag for use of LIBINT has been found!

CheckInput: checking for shifts: .
================================================================================
                                       INPUT FILE
================================================================================
NAME = /home/jan/SoftwareDevelopment/karminus/output/olyp_ccpvdz/acetaldehyde_dimethyl_acetale/acetaldehyde_dimethyl_acetale.in
|  1> !cc-pvdz OLYP NMR
|  2> 
|  3> *xyzfile 0 1 guess.xyz
|  4> 
|  5> 
|  6>                          ****END OF INPUT****
================================================================================

                       ****************************
                       * Single Point Calculation *
                       ****************************

---------------------------------
CARTESIAN COORDINATES (ANGSTROEM)
---------------------------------
  C     -5.836580    1.910430   -0.257460
  C     -5.422970    3.284080    0.305630
  H     -6.186420    1.329360    0.607980
  H     -5.003540    1.334660   -0.699520
  H     -6.679420    1.899980   -0.949770
  O     -4.652250    4.189390   -0.495290
  O     -6.564510    3.870210    0.966150
  H     -4.739930    2.997410    1.089160
  C     -7.493040    4.564110    0.172040
  H     -8.440470    4.021040    0.128210
  H     -7.159700    4.784930   -0.855460
  H     -7.677790    5.516500    0.679790
  C     -4.744970    5.577430   -0.126410
  H     -3.776950    6.081570   -0.075660
  H     -5.248300    5.771300    0.837230
  H     -5.315420    6.063010   -0.920920

----------------------------
CARTESIAN COORDINATES (A.U.)
----------------------------
  NO LB      ZA    FRAG     MASS         X           Y           Z
   0 C     6.0000    0    12.011  -11.029538    3.610189   -0.486529
   1 C     6.0000    0    12.011  -10.247928    6.206012    0.577557
   2 H     1.0000    0     1.008  -11.690640    2.512126    1.148916
   3 H     1.0000    0     1.008   -9.455320    2.522142   -1.321901
   4 H     1.0000    0     1.008  -12.622275    3.590442   -1.794805
   5 O     8.0000    0    15.999   -8.791478    7.916800   -0.935962
   6 O     8.0000    0    15.999  -12.405126    7.313637    1.825759
   7 H     1.0000    0     1.008   -8.957170    5.664284    2.058214
   8 C     6.0000    0    12.011  -14.159794    8.624918    0.325108
   9 H     1.0000    0     1.008  -15.950177    7.598664    0.242282
  10 H     1.0000    0     1.008  -13.529872    9.042207   -1.616585
  11 H     1.0000    0     1.008  -14.508920   10.424674    1.284617
  12 C     6.0000    0    12.011   -8.966694   10.539815   -0.238880
  13 H     1.0000    0     1.008   -7.137401   11.492502   -0.142977
  14 H     1.0000    0     1.008   -9.917850   10.906176    1.582135
  15 H     1.0000    0     1.008  -10.044688   11.457428   -1.740287

--------------------------------
INTERNAL COORDINATES (ANGSTROEM)
--------------------------------
 C      0   0   0     0.000000000000     0.00000000     0.00000000
 C      1   0   0     1.541122286744     0.00000000     0.00000000
 H      1   2   0     1.099552983762   105.59531764     0.00000000
 H      1   2   3     1.104936096840   114.09816582   243.72943571
 H      1   2   3     1.090771105320   116.60405154   115.37365856
 O      2   1   3     1.433550962087   120.20167949   166.45480128
 O      2   1   3     1.443242397832   108.47729730   301.87890492
 H      2   1   3     1.078259055793   101.45181149    53.29181921
 C      7   2   1     1.405089272253   117.68399031   276.21445887
 H      9   7   2     1.092917974370   110.49568691   111.41363488
 H      9   7   2     1.102557607565   115.20184008   347.46362709
 H      9   7   2     1.094983715450   106.19838116   227.97330500
 C      6   2   1     1.439209677010   115.54554199   157.24328390
 H     13   6   2     1.092609455615   113.56763147   133.50793539
 H     13   6   2     1.104322740597   114.98195975    10.62030572
 H     13   6   2     1.091992343838   106.02368357   250.64349918

---------------------------
INTERNAL COORDINATES (A.U.)
---------------------------
 C      0   0   0     0.000000000000     0.00000000     0.00000000
 C      1   0   0     2.912299060829     0.00000000     0.00000000
 H      1   2   0     2.077854009046   105.59531764     0.00000000
 H      1   2   3     2.088026618511   114.09816582   243.72943571
 H      1   2   3     2.061258663848   116.60405154   115.37365856
 O      2   1   3     2.709018717363   120.20167949   166.45480128
 O      2   1   3     2.727332876766   108.47729730   301.87890492
 H      2   1   3     2.037614316870   101.45181149    53.29181921
 C      7   2   1     2.655233918269   117.68399031   276.21445887
 H      9   7   2     2.065315658398   110.49568691   111.41363488
 H      9   7   2     2.083531925170   115.20184008   347.46362709
 H      9   7   2     2.069219343303   106.19838116   227.97330500
 C      6   2   1     2.719712138839   115.54554199   157.24328390
 H     13   6   2     2.064732642446   113.56763147   133.50793539
 H     13   6   2     2.086867543190   114.98195975    10.62030572
 H     13   6   2     2.063566470192   106.02368357   250.64349918

---------------------
BASIS SET INFORMATION
---------------------
There are 3 groups of distinct atoms

 Group   1 Type C   : 17s4p1d contracted to 3s2p1d pattern {881/31/1}
 Group   2 Type H   : 4s1p contracted to 2s1p pattern {31/1}
 Group   3 Type O   : 17s4p1d contracted to 3s2p1d pattern {881/31/1}

Atom   0C    basis set group =>   1
Atom   1C    basis set group =>   1
Atom   2H    basis set group =>   2
Atom   3H    basis set group =>   2
Atom   4H    basis set group =>   2
Atom   5O    basis set group =>   3
Atom   6O    basis set group =>   3
Atom   7H    basis set group =>   2
Atom   8C    basis set group =>   1
Atom   9H    basis set group =>   2
Atom  10H    basis set group =>   2
Atom  11H    basis set group =>   2
Atom  12C    basis set group =>   1
Atom  13H    basis set group =>   2
Atom  14H    basis set group =>   2
Atom  15H    basis set group =>   2
-------------------------------
AUXILIARY BASIS SET INFORMATION
-------------------------------
There are 3 groups of distinct atoms

 Group   1 Type C   : 12s5p4d2f1g contracted to 6s4p3d1f1g pattern {711111/2111/211/2/1}
 Group   2 Type H   : 5s2p1d contracted to 3s1p1d pattern {311/2/1}
 Group   3 Type O   : 12s5p4d2f1g contracted to 6s4p3d1f1g pattern {711111/2111/211/2/1}

Atom   0C    basis set group =>   1
Atom   1C    basis set group =>   1
Atom   2H    basis set group =>   2
Atom   3H    basis set group =>   2
Atom   4H    basis set group =>   2
Atom   5O    basis set group =>   3
Atom   6O    basis set group =>   3
Atom   7H    basis set group =>   2
Atom   8C    basis set group =>   1
Atom   9H    basis set group =>   2
Atom  10H    basis set group =>   2
Atom  11H    basis set group =>   2
Atom  12C    basis set group =>   1
Atom  13H    basis set group =>   2
Atom  14H    basis set group =>   2
Atom  15H    basis set group =>   2
------------------------------------------------------------------------------
                           ORCA GTO INTEGRAL CALCULATION
                           -- RI-GTO INTEGRALS CHOSEN --
------------------------------------------------------------------------------

                         BASIS SET STATISTICS AND STARTUP INFO

Gaussian basis set:
 # of primitive gaussian shells          ...  182
 # of primitive gaussian functions       ...  274
 # of contracted shells                  ...   66
 # of contracted basis functions         ...  134
 Highest angular momentum                ...    2
 Maximum contraction depth               ...    8
Auxiliary gaussian basis set:
 # of primitive gaussian shells          ...  224
 # of primitive gaussian functions       ...  580
 # of contracted shells                  ...  140
 # of contracted aux-basis functions     ...  404
 Highest angular momentum                ...    4
 Maximum contraction depth               ...    7
Ratio of auxiliary to basis functions    ...  3.01
Integral package used                  ... LIBINT
 One Electron integrals                  ... done
 Ordering auxiliary basis shells         ... done
 Integral threshhold             Thresh  ...  1.000e-10
 Primitive cut-off               TCut    ...  1.000e-11
 Pre-screening matrix                    ... done
 Shell pair data                         ... 
 Ordering of the shell pairs             ... done (   0.000 sec) 2205 of 2211 pairs
 Determination of significant pairs      ... done (   0.000 sec)
 Creation of shell pair data             ... done (   0.002 sec)
 Storage of shell pair data              ... done (   0.001 sec)
 Shell pair data done in (   0.003 sec)
 Computing two index integrals           ... done
 Cholesky decomposition of the V-matrix  ... done


Timings:
 Total evaluation time                   ...   0.768 sec (  0.013 min)
 One electron matrix time                ...   0.018 sec (  0.000 min) =  2.4%
 Schwartz matrix evaluation time         ...   0.152 sec (  0.003 min) = 19.8%
 Two index repulsion integral time       ...   0.103 sec (  0.002 min) = 13.4%
 Cholesky decomposition of V             ...   0.475 sec (  0.008 min) = 61.9%
 Three index repulsion integral time     ...   0.000 sec (  0.000 min) =  0.0%

-------------------------------------------------------------------------------
                                 ORCA SCF
-------------------------------------------------------------------------------

------------
SCF SETTINGS
------------
Hamiltonian:
 Density Functional     Method          .... DFT(GTOs)
 Exchange Functional    Exchange        .... OPTX
 Correlation Functional Correlation     .... LYP
 Gradients option       PostSCFGGA      .... off
 RI-approximation to the Coulomb term is turned on
   Number of auxiliary basis functions  .... 404


General Settings:
 Integral files         IntName         .... /home/jan/SoftwareDevelopment/karminus/output/olyp_ccpvdz/acetaldehyde_dimethyl_acetale/acetaldehyde_dimethyl_acetale
 Hartree-Fock type      HFTyp           .... RHF
 Total Charge           Charge          ....    0
 Multiplicity           Mult            ....    1
 Number of Electrons    NEL             ....   50
 Basis Dimension        Dim             ....  134
 Nuclear Repulsion      ENuc            ....    269.2882689950 Eh

Convergence Acceleration:
 DIIS                   CNVDIIS         .... on
   Start iteration      DIISMaxIt       ....    12
   Startup error        DIISStart       ....  0.200000
   # of expansion vecs  DIISMaxEq       ....     5
   Bias factor          DIISBfac        ....   1.050
   Max. coefficient     DIISMaxC        ....  10.000
 Newton-Raphson         CNVNR           .... off
 SOSCF                  CNVSOSCF        .... on
   Start iteration      SOSCFMaxIt      ....   150
   Startup grad/error   SOSCFStart      ....  0.003300
 Level Shifting         CNVShift        .... on
   Level shift para.    LevelShift      ....    0.2500
   Turn off err/grad.   ShiftErr        ....    0.0010
 Zerner damping         CNVZerner       .... off
 Static damping         CNVDamp         .... on
   Fraction old density DampFac         ....    0.7000
   Max. Damping (<1)    DampMax         ....    0.9800
   Min. Damping (>=0)   DampMin         ....    0.0000
   Turn off err/grad.   DampErr         ....    0.1000
 Fernandez-Rico         CNVRico         .... off

SCF Procedure:
 Maximum # iterations   MaxIter         ....   125
 SCF integral mode      SCFMode         .... Direct
   Integral package                     .... LIBINT
 Reset frequeny         DirectResetFreq ....    20
 Integral Threshold     Thresh          ....  1.000e-10 Eh
 Primitive CutOff       TCut            ....  1.000e-11 Eh

Convergence Tolerance:
 Convergence Check Mode ConvCheckMode   .... Total+1el-Energy
 Convergence forced     ConvForced      .... 0
 Energy Change          TolE            ....  1.000e-06 Eh
 1-El. energy change                    ....  1.000e-03 Eh
 Orbital Gradient       TolG            ....  5.000e-05
 Orbital Rotation angle TolX            ....  5.000e-05
 DIIS Error             TolErr          ....  1.000e-06


Diagonalization of the overlap matrix:
Smallest eigenvalue                        ... 4.756e-03
Time for diagonalization                   ...    0.009 sec
Threshold for overlap eigenvalues          ... 1.000e-08
Number of eigenvalues below threshold      ... 0
Time for construction of square roots      ...    0.002 sec
Total time needed                          ...    0.011 sec

-------------------
DFT GRID GENERATION
-------------------

General Integration Accuracy     IntAcc      ...  4.340
Radial Grid Type                 RadialGrid  ... Gauss-Chebyshev
Angular Grid (max. acc.)         AngularGrid ... Lebedev-110
Angular grid pruning method      GridPruning ... 3 (G Style)
Weight generation scheme         WeightScheme... Becke
Basis function cutoff            BFCut       ...    1.0000e-10
Integration weight cutoff        WCut        ...    1.0000e-14
Grids for H and He will be reduced by one unit

# of grid points (after initial pruning)     ...  17996 (   0.0 sec)
# of grid points (after weights+screening)   ...  16658 (   0.0 sec)
nearest neighbour list constructed           ...    0.0 sec
Grid point re-assignment to atoms done       ...    0.0 sec
Grid point division into batches done        ...    0.0 sec
Reduced shell lists constructed in    0.3 sec

Total number of grid points                  ...    16658
Total number of batches                      ...      267
Average number of points per batch           ...       62
Average number of grid points per atom       ...     1041
Average number of shells per batch           ...    52.47 (79.51%)
Average number of basis functions per batch  ...   103.32 (77.10%)
Average number of large shells per batch     ...    40.54 (77.25%)
Average number of large basis fcns per batch ...    79.37 (76.82%)
Maximum spatial batch extension              ...  22.44, 20.71, 20.65 au
Average spatial batch extension              ...   3.74,  3.75,  3.86 au

Time for grid setup =    0.416 sec

------------------------------
INITIAL GUESS: MODEL POTENTIAL
------------------------------
Loading Hartree-Fock densities                     ... done
Calculating cut-offs                               ... done
Setting up the integral package                    ... done
Initializing the effective Hamiltonian             ... done
Starting the Coulomb interaction                   ... done (   0.3 sec)
Reading the grid                                   ... done
Mapping shells                                     ... done
Starting the XC term evaluation                    ... done (   0.7 sec)
  promolecular density results
     # of electrons  =     49.999284502
     EX              =    -39.863817590
     EC              =     -1.664496462
     EX+EC           =    -41.528314052
Transforming the Hamiltonian                       ... done (   0.0 sec)
Diagonalizing the Hamiltonian                      ... done (   0.0 sec)
Back transforming the eigenvectors                 ... done (   0.0 sec)
Now organizing SCF variables                       ... done
                      ------------------
                      INITIAL GUESS DONE (   1.5 sec)
                      ------------------
--------------
SCF ITERATIONS
--------------
ITER       Energy         Delta-E        Max-DP      RMS-DP      [F,P]     Damp
               ***  Starting incremental Fock matrix formation  ***
  0   -308.5880546816   0.000000000000 0.05508984  0.00226909  0.1659316 0.7000
  1   -308.6578347970  -0.069780115315 0.03338319  0.00171084  0.0701692 0.7000
                               ***Turning on DIIS***
  2   -308.6829894726  -0.025154675665 0.05321846  0.00290144  0.0213450 0.0000
  3   -308.7210681894  -0.038078716723 0.02637230  0.00112060  0.0454956 0.0000
  4   -308.7314541251  -0.010385935785 0.00764065  0.00038017  0.0078647 0.0000
  5   -308.7320675184  -0.000613393295 0.00279525  0.00015750  0.0043360 0.0000
                      *** Initiating the SOSCF procedure ***
                           *** Shutting down DIIS ***
                      *** Re-Reading the Fockian *** 
                      *** Removing any level shift *** 
ITER      Energy       Delta-E        Grad      Rot      Max-DP    RMS-DP
  6   -308.73214711  -0.0000795934  0.000221  0.000221  0.001464  0.000082
               *** Restarting incremental Fock matrix formation ***
  7   -308.73215094  -0.0000038268  0.000112  0.000248  0.000702  0.000020
  8   -308.73215029   0.0000006471  0.000148  0.000130  0.000415  0.000011
                  ***Gradient check signals convergence***
              ***Rediagonalizing the Fockian in SOSCF/NRSCF***

               *****************************************************
               *                     SUCCESS                       *
               *           SCF CONVERGED AFTER   9 CYCLES          *
               *****************************************************

Setting up the final grid:

General Integration Accuracy     IntAcc      ...  4.670
Radial Grid Type                 RadialGrid  ... Gauss-Chebyshev
Angular Grid (max. acc.)         AngularGrid ... Lebedev-302
Angular grid pruning method      GridPruning ... 3 (G Style)
Weight generation scheme         WeightScheme... Becke
Basis function cutoff            BFCut       ...    1.0000e-10
Integration weight cutoff        WCut        ...    1.0000e-14
Grids for H and He will be reduced by one unit

# of grid points (after initial pruning)     ...  71212 (   0.0 sec)
# of grid points (after weights+screening)   ...  65023 (   0.1 sec)
nearest neighbour list constructed           ...    0.0 sec
Grid point re-assignment to atoms done       ...    0.0 sec
Grid point division into batches done        ...    0.2 sec
Reduced shell lists constructed in    1.5 sec

Total number of grid points                  ...    65023
Total number of batches                      ...     1024
Average number of points per batch           ...       63
Average number of grid points per atom       ...     4064
Average number of shells per batch           ...    48.13 (72.93%)
Average number of basis functions per batch  ...    94.29 (70.37%)
Average number of large shells per batch     ...    36.03 (74.84%)
Average number of large basis fcns per batch ...    69.91 (74.14%)
Maximum spatial batch extension              ...  18.61, 18.30, 20.64 au
Average spatial batch extension              ...   2.48,  2.44,  2.57 au

Final grid set up in    1.6 sec
Final integration                            ... done (   1.4 sec)
Change in XC energy                          ...     0.000611107
Integrated number of electrons               ...    50.000005770
Previous integrated no of electrons          ...    50.000947080

----------------
TOTAL SCF ENERGY
----------------

Total Energy       :         -308.73154039 Eh           -8401.01231 eV

Components:
Nuclear Repulsion  :          269.28826899 Eh            7327.70633 eV
Electronic Energy  :         -578.01980939 Eh          -15728.71865 eV
One Electron Energy:         -953.49089906 Eh          -25945.80642 eV
Two Electron Energy:          375.47108967 Eh           10217.08778 eV

Virial components:
Potential Energy   :         -615.62348291 Eh          -16751.96662 eV
Kinetic Energy     :          306.89194252 Eh            8350.95431 eV
Virial Ratio       :            2.00599429


DFT components:
N(Alpha)           :       25.000002885204 electrons
N(Beta)            :       25.000002885204 electrons
N(Total)           :       50.000005770408 electrons
E(X)               :      -40.870270649289 Eh       
E(C)               :       -1.671862272339 Eh       
E(XC)              :      -42.542132921628 Eh       

---------------
SCF CONVERGENCE
---------------

  Last Energy change         ...   -1.2084e-06  Tolerance :   1.0000e-06
  Last MAX-Density change    ...    4.9514e-05  Tolerance :   1.0000e-05
  Last RMS-Density change    ...    1.8019e-06  Tolerance :   1.0000e-06
  Last Orbital Gradient      ...    7.3396e-06  Tolerance :   5.0000e-05
  Last Orbital Rotation      ...    1.8487e-05  Tolerance :   5.0000e-05

             **** THE GBW FILE WAS UPDATED (/home/jan/SoftwareDevelopment/karminus/output/olyp_ccpvdz/acetaldehyde_dimethyl_acetale/acetaldehyde_dimethyl_acetale.gbw) ****
             **** DENSITY FILE WAS UPDATED (/home/jan/SoftwareDevelopment/karminus/output/olyp_ccpvdz/acetaldehyde_dimethyl_acetale/acetaldehyde_dimethyl_acetale.scfp.tmp) ****
             **** ENERGY FILE WAS UPDATED (/home/jan/SoftwareDevelopment/karminus/output/olyp_ccpvdz/acetaldehyde_dimethyl_acetale/acetaldehyde_dimethyl_acetale.en.tmp) ****
----------------
ORBITAL ENERGIES
----------------

  NO   OCC          E(Eh)            E(eV) 
   0   2.0000     -18.773125      -510.8427 
   1   2.0000     -18.772505      -510.8258 
   2   2.0000     -10.003120      -272.1987 
   3   2.0000      -9.950217      -270.7592 
   4   2.0000      -9.949803      -270.7479 
   5   2.0000      -9.908883      -269.6344 
   6   2.0000      -0.967922       -26.3385 
   7   2.0000      -0.913703       -24.8631 
   8   2.0000      -0.693233       -18.8638 
   9   2.0000      -0.617870       -16.8131 
  10   2.0000      -0.614621       -16.7247 
  11   2.0000      -0.524439       -14.2707 
  12   2.0000      -0.451465       -12.2850 
  13   2.0000      -0.439678       -11.9642 
  14   2.0000      -0.412804       -11.2330 
  15   2.0000      -0.382627       -10.4118 
  16   2.0000      -0.361133        -9.8269 
  17   2.0000      -0.357760        -9.7351 
  18   2.0000      -0.348286        -9.4774 
  19   2.0000      -0.332997        -9.0613 
  20   2.0000      -0.318390        -8.6638 
  21   2.0000      -0.298278        -8.1166 
  22   2.0000      -0.247365        -6.7311 
  23   2.0000      -0.216338        -5.8868 
  24   2.0000      -0.189341        -5.1522 
  25   0.0000       0.039280         1.0689 
  26   0.0000       0.057190         1.5562 
  27   0.0000       0.072918         1.9842 
  28   0.0000       0.082109         2.2343 
  29   0.0000       0.086058         2.3418 
  30   0.0000       0.097584         2.6554 
  31   0.0000       0.111737         3.0405 
  32   0.0000       0.117400         3.1946 
  33   0.0000       0.119026         3.2389 
  34   0.0000       0.137053         3.7294 
  35   0.0000       0.142579         3.8798 
  36   0.0000       0.152886         4.1602 
  37   0.0000       0.186244         5.0680 
  38   0.0000       0.217546         5.9197 
  39   0.0000       0.229160         6.2358 
  40   0.0000       0.376352        10.2411 
  41   0.0000       0.399561        10.8726 
  42   0.0000       0.406077        11.0499 
  43   0.0000       0.425673        11.5831 
  44   0.0000       0.445605        12.1255 
  45   0.0000       0.452250        12.3063 
  46   0.0000       0.483212        13.1489 
  47   0.0000       0.497204        13.5296 
  48   0.0000       0.519116        14.1259 
  49   0.0000       0.539307        14.6753 
  50   0.0000       0.560214        15.2442 
  51   0.0000       0.580990        15.8095 
  52   0.0000       0.584659        15.9094 
  53   0.0000       0.600455        16.3392 
  54   0.0000       0.604141        16.4395 
  55   0.0000       0.607299        16.5254 
  56   0.0000       0.622936        16.9510 
  57   0.0000       0.637872        17.3574 
  58   0.0000       0.644215        17.5300 
  59   0.0000       0.648251        17.6398 
  60   0.0000       0.699787        19.0422 
  61   0.0000       0.786405        21.3992 
  62   0.0000       0.830106        22.5883 
  63   0.0000       0.839913        22.8552 
  64   0.0000       0.842447        22.9241 
  65   0.0000       0.859634        23.3918 
  66   0.0000       0.898124        24.4392 
  67   0.0000       0.912815        24.8390 
  68   0.0000       0.955789        26.0084 
  69   0.0000       1.004680        27.3387 
  70   0.0000       1.072112        29.1736 
  71   0.0000       1.134185        30.8628 
  72   0.0000       1.179541        32.0969 
  73   0.0000       1.194627        32.5074 
  74   0.0000       1.209597        32.9148 
  75   0.0000       1.258169        34.2365 
  76   0.0000       1.281502        34.8714 
  77   0.0000       1.321695        35.9651 
  78   0.0000       1.339710        36.4554 
  79   0.0000       1.357593        36.9420 
  80   0.0000       1.370380        37.2899 
  81   0.0000       1.393751        37.9259 
  82   0.0000       1.426895        38.8278 
  83   0.0000       1.464499        39.8510 
  84   0.0000       1.499773        40.8109 
  85   0.0000       1.515446        41.2374 
  86   0.0000       1.539713        41.8977 
  87   0.0000       1.564929        42.5839 
  88   0.0000       1.580610        43.0106 
  89   0.0000       1.591349        43.3028 
  90   0.0000       1.595579        43.4179 
  91   0.0000       1.608571        43.7714 
  92   0.0000       1.623365        44.1740 
  93   0.0000       1.637592        44.5612 
  94   0.0000       1.649511        44.8855 
  95   0.0000       1.680359        45.7249 
  96   0.0000       1.708579        46.4928 
  97   0.0000       1.727921        47.0191 
  98   0.0000       1.738983        47.3201 
  99   0.0000       1.778280        48.3894 
 100   0.0000       1.794770        48.8382 
 101   0.0000       1.844081        50.1800 
 102   0.0000       1.884095        51.2688 
 103   0.0000       1.904793        51.8320 
 104   0.0000       1.924320        52.3634 
 105   0.0000       1.981448        53.9179 
 106   0.0000       2.029039        55.2130 
 107   0.0000       2.031631        55.2835 
 108   0.0000       2.065004        56.1916 
 109   0.0000       2.095912        57.0327 
 110   0.0000       2.105622        57.2969 
 111   0.0000       2.142865        58.3103 
 112   0.0000       2.183180        59.4073 
 113   0.0000       2.213747        60.2391 
 114   0.0000       2.328810        63.3701 
 115   0.0000       2.336843        63.5887 
 116   0.0000       2.353145        64.0323 
 117   0.0000       2.359998        64.2188 
 118   0.0000       2.400757        65.3279 
 119   0.0000       2.401151        65.3386 
 120   0.0000       2.416673        65.7610 
 121   0.0000       2.424122        65.9637 
 122   0.0000       2.449644        66.6582 
 123   0.0000       2.503395        68.1208 
 124   0.0000       2.734444        74.4080 
 125   0.0000       2.805686        76.3466 
 126   0.0000       2.893072        78.7245 
 127   0.0000       2.910326        79.1940 
 128   0.0000       2.918171        79.4075 
 129   0.0000       3.002067        81.6904 
 130   0.0000       3.076352        83.7118 
 131   0.0000       3.195098        86.9430 
 132   0.0000       3.224036        87.7305 
 133   0.0000       3.265697        88.8641 

                    ********************************
                    * MULLIKEN POPULATION ANALYSIS *
                    ********************************

-----------------------
MULLIKEN ATOMIC CHARGES
-----------------------
   0 C :    0.031139
   1 C :    0.265651
   2 H :    0.022127
   3 H :    0.011899
   4 H :    0.007039
   5 O :   -0.344943
   6 O :   -0.333259
   7 H :   -0.019715
   8 C :    0.167161
   9 H :   -0.003929
  10 H :    0.014440
  11 H :   -0.000747
  12 C :    0.159853
  13 H :   -0.001867
  14 H :    0.022156
  15 H :    0.002994
Sum of atomic charges:   -0.0000000

--------------------------------
MULLIKEN REDUCED ORBITAL CHARGES
--------------------------------
  0 C s       :     3.039018  s :     3.039018
      pz      :     0.980550  p :     2.892782
      px      :     0.966726
      py      :     0.945506
      dz2     :     0.004040  d :     0.037061
      dxz     :     0.008759
      dyz     :     0.009610
      dx2y2   :     0.007290
      dxy     :     0.007361
  1 C s       :     3.040297  s :     3.040297
      pz      :     0.875178  p :     2.522151
      px      :     0.804897
      py      :     0.842076
      dz2     :     0.023253  d :     0.171901
      dxz     :     0.037809
      dyz     :     0.035373
      dx2y2   :     0.037300
      dxy     :     0.038166
  2 H s       :     0.946362  s :     0.946362
      pz      :     0.014001  p :     0.031511
      px      :     0.008431
      py      :     0.009079
  3 H s       :     0.956526  s :     0.956526
      pz      :     0.009037  p :     0.031575
      px      :     0.013266
      py      :     0.009272
  4 H s       :     0.960481  s :     0.960481
      pz      :     0.012625  p :     0.032480
      px      :     0.014159
      py      :     0.005696
  5 O s       :     3.795885  s :     3.795885
      pz      :     1.668687  p :     4.534404
      px      :     1.680515
      py      :     1.185202
      dz2     :     0.002087  d :     0.014654
      dxz     :     0.002470
      dyz     :     0.004287
      dx2y2   :     0.002721
      dxy     :     0.003088
  6 O s       :     3.785744  s :     3.785744
      pz      :     1.560499  p :     4.531985
      px      :     1.318906
      py      :     1.652581
      dz2     :     0.002571  d :     0.015529
      dxz     :     0.004954
      dyz     :     0.003028
      dx2y2   :     0.002452
      dxy     :     0.002524
  7 H s       :     0.992954  s :     0.992954
      pz      :     0.012039  p :     0.026761
      px      :     0.009570
      py      :     0.005153
  8 C s       :     3.034156  s :     3.034156
      pz      :     0.918591  p :     2.714214
      px      :     0.874088
      py      :     0.921534
      dz2     :     0.014732  d :     0.084469
      dxz     :     0.017052
      dyz     :     0.014223
      dx2y2   :     0.020734
      dxy     :     0.017728
  9 H s       :     0.973232  s :     0.973232
      pz      :     0.006443  p :     0.030697
      px      :     0.015447
      py      :     0.008807
 10 H s       :     0.953477  s :     0.953477
      pz      :     0.017784  p :     0.032083
      px      :     0.007000
      py      :     0.007299
 11 H s       :     0.970660  s :     0.970660
      pz      :     0.008531  p :     0.030087
      px      :     0.005850
      py      :     0.015706
 12 C s       :     3.048989  s :     3.048989
      pz      :     0.988509  p :     2.712688
      px      :     0.994267
      py      :     0.729912
      dz2     :     0.009571  d :     0.078470
      dxz     :     0.005482
      dyz     :     0.022317
      dx2y2   :     0.017888
      dxy     :     0.023211
 13 H s       :     0.970112  s :     0.970112
      pz      :     0.007781  p :     0.031755
      px      :     0.017056
      py      :     0.006918
 14 H s       :     0.944930  s :     0.944930
      pz      :     0.017118  p :     0.032914
      px      :     0.010730
      py      :     0.005066
 15 H s       :     0.966610  s :     0.966610
      pz      :     0.013388  p :     0.030396
      px      :     0.010871
      py      :     0.006137


                     *******************************
                     * LOEWDIN POPULATION ANALYSIS *
                     *******************************

----------------------
LOEWDIN ATOMIC CHARGES
----------------------
   0 C :   -0.067816
   1 C :   -0.028046
   2 H :    0.038778
   3 H :    0.028973
   4 H :    0.019291
   5 O :   -0.027643
   6 O :   -0.003383
   7 H :    0.007505
   8 C :   -0.030135
   9 H :    0.007761
  10 H :    0.012709
  11 H :    0.014387
  12 C :   -0.012076
  13 H :    0.013676
  14 H :    0.016238
  15 H :    0.009782

-------------------------------
LOEWDIN REDUCED ORBITAL CHARGES
-------------------------------
  0 C s       :     2.822392  s :     2.822392
      pz      :     1.054155  p :     3.109663
      px      :     1.048028
      py      :     1.007479
      dz2     :     0.013143  d :     0.135761
      dxz     :     0.037167
      dyz     :     0.033183
      dx2y2   :     0.026417
      dxy     :     0.025850
  1 C s       :     2.833641  s :     2.833641
      pz      :     0.969990  p :     2.777237
      px      :     0.893985
      py      :     0.913263
      dz2     :     0.051040  d :     0.417167
      dxz     :     0.103570
      dyz     :     0.089809
      dx2y2   :     0.083750
      dxy     :     0.088998
  2 H s       :     0.881621  s :     0.881621
      pz      :     0.035247  p :     0.079601
      px      :     0.019680
      py      :     0.024674
  3 H s       :     0.891705  s :     0.891705
      pz      :     0.021398  p :     0.079322
      px      :     0.032867
      py      :     0.025058
  4 H s       :     0.898020  s :     0.898020
      pz      :     0.030143  p :     0.082689
      px      :     0.035776
      py      :     0.016771
  5 O s       :     3.437620  s :     3.437620
      pz      :     1.663245  p :     4.563380
      px      :     1.661624
      py      :     1.238510
      dz2     :     0.003322  d :     0.026643
      dxz     :     0.003523
      dyz     :     0.008171
      dx2y2   :     0.005468
      dxy     :     0.006158
  6 O s       :     3.424703  s :     3.424703
      pz      :     1.573607  p :     4.549942
      px      :     1.355536
      py      :     1.620799
      dz2     :     0.003835  d :     0.028738
      dxz     :     0.009649
      dyz     :     0.005012
      dx2y2   :     0.004856
      dxy     :     0.005387
  7 H s       :     0.910286  s :     0.910286
      pz      :     0.036159  p :     0.082209
      px      :     0.027402
      py      :     0.018649
  8 C s       :     2.822375  s :     2.822375
      pz      :     1.005982  p :     2.960405
      px      :     0.951410
      py      :     1.003013
      dz2     :     0.051288  d :     0.247354
      dxz     :     0.045427
      dyz     :     0.042110
      dx2y2   :     0.057530
      dxy     :     0.050999
  9 H s       :     0.912620  s :     0.912620
      pz      :     0.015302  p :     0.079620
      px      :     0.041226
      py      :     0.023092
 10 H s       :     0.906653  s :     0.906653
      pz      :     0.046633  p :     0.080638
      px      :     0.016838
      py      :     0.017166
 11 H s       :     0.907707  s :     0.907707
      pz      :     0.021705  p :     0.077906
      px      :     0.015118
      py      :     0.041083
 12 C s       :     2.827832  s :     2.827832
      pz      :     1.067766  p :     2.953997
      px      :     1.077929
      py      :     0.808302
      dz2     :     0.034262  d :     0.230248
      dxz     :     0.025633
      dyz     :     0.058414
      dx2y2   :     0.048285
      dxy     :     0.063654
 13 H s       :     0.906185  s :     0.906185
      pz      :     0.017481  p :     0.080139
      px      :     0.043185
      py      :     0.019473
 14 H s       :     0.900984  s :     0.900984
      pz      :     0.044193  p :     0.082778
      px      :     0.024988
      py      :     0.013597
 15 H s       :     0.909850  s :     0.909850
      pz      :     0.034259  p :     0.080368
      px      :     0.026743
      py      :     0.019366


                      *****************************
                      * MAYER POPULATION ANALYSIS *
                      *****************************

  NA   - Mulliken gross atomic population
  ZA   - Total nuclear charge
  QA   - Mulliken gross atomic charge
  VA   - Mayer's total valence
  BVA  - Mayer's bonded valence
  FA   - Mayer's free valence

  ATOM       NA         ZA         QA         VA         BVA        FA
  0 C      5.9689     6.0000     0.0311     3.9794     3.9794    -0.0000
  1 C      5.7343     6.0000     0.2657     4.1759     4.1759    -0.0000
  2 H      0.9779     1.0000     0.0221     0.9866     0.9866     0.0000
  3 H      0.9881     1.0000     0.0119     0.9799     0.9799    -0.0000
  4 H      0.9930     1.0000     0.0070     0.9900     0.9900    -0.0000
  5 O      8.3449     8.0000    -0.3449     2.1632     2.1632     0.0000
  6 O      8.3333     8.0000    -0.3333     2.1824     2.1824    -0.0000
  7 H      1.0197     1.0000    -0.0197     0.9666     0.9666    -0.0000
  8 C      5.8328     6.0000     0.1672     3.9968     3.9968     0.0000
  9 H      1.0039     1.0000    -0.0039     0.9744     0.9744     0.0000
 10 H      0.9856     1.0000     0.0144     0.9879     0.9879    -0.0000
 11 H      1.0007     1.0000    -0.0007     0.9756     0.9756     0.0000
 12 C      5.8401     6.0000     0.1599     3.9858     3.9858     0.0000
 13 H      1.0019     1.0000    -0.0019     0.9777     0.9777     0.0000
 14 H      0.9778     1.0000     0.0222     1.0019     1.0019    -0.0000
 15 H      0.9970     1.0000     0.0030     0.9733     0.9733     0.0000

  Mayer bond orders larger than 0.1
B(  0-C ,  1-C ) :   1.0815 B(  0-C ,  2-H ) :   0.9549 B(  0-C ,  3-H ) :   0.9531 
B(  0-C ,  4-H ) :   0.9621 B(  1-C ,  5-O ) :   1.0380 B(  1-C ,  6-O ) :   1.0086 
B(  1-C ,  7-H ) :   0.9308 B(  5-O , 12-C ) :   1.0251 B(  6-O ,  8-C ) :   1.0381 
B(  8-C ,  9-H ) :   0.9685 B(  8-C , 10-H ) :   0.9591 B(  8-C , 11-H ) :   0.9738 
B( 12-C , 13-H ) :   0.9692 B( 12-C , 14-H ) :   0.9591 B( 12-C , 15-H ) :   0.9732 


-------
TIMINGS
-------

Total SCF time: 0 days 0 hours 0 min 14 sec 

Total time                  ....      14.060 sec
Sum of individual times     ....      13.921 sec  ( 99.0%)

Fock matrix formation       ....      10.568 sec  ( 75.2%)
  Split-RI-J                ....       4.327 sec  ( 40.9% of F)
  XC integration            ....       5.139 sec  ( 48.6% of F)
    Basis function eval.    ....       3.516 sec  ( 68.4% of XC)
    Density eval.           ....       0.510 sec  (  9.9% of XC)
    XC-Functional eval.     ....       0.105 sec  (  2.0% of XC)
    XC-Potential eval.      ....       0.945 sec  ( 18.4% of XC)
Diagonalization             ....       0.037 sec  (  0.3%)
Density matrix formation    ....       0.003 sec  (  0.0%)
Population analysis         ....       0.072 sec  (  0.5%)
Initial guess               ....       1.079 sec  (  7.7%)
Orbital Transformation      ....       0.000 sec  (  0.0%)
Orbital Orthonormalization  ....       0.000 sec  (  0.0%)
DIIS solution               ....       0.105 sec  (  0.7%)
SOSCF solution              ....       0.004 sec  (  0.0%)
Grid generation             ....       2.053 sec  ( 14.6%)

-------------------------   --------------------
FINAL SINGLE POINT ENERGY      -308.731540392685
-------------------------   --------------------


                            ***************************************
                            *     ORCA property calculations      *
                            ***************************************

                                    ---------------------
                                    Active property flags
                                    ---------------------
   (+) Dipole Moment
   (+) Chemical Shifts


------------------------------------------------------------------------------
                       ORCA ELECTRIC PROPERTIES CALCULATION
------------------------------------------------------------------------------

Dipole Moment Calculation                       ... on
Quadrupole Moment Calculation                   ... off
Polarizability Calculation                      ... off
GBWName                                         ... /home/jan/SoftwareDevelopment/karminus/output/olyp_ccpvdz/acetaldehyde_dimethyl_acetale/acetaldehyde_dimethyl_acetale.gbw
Electron density file                           ... /home/jan/SoftwareDevelopment/karminus/output/olyp_ccpvdz/acetaldehyde_dimethyl_acetale/acetaldehyde_dimethyl_acetale.scfp.tmp

-------------
DIPOLE MOMENT
-------------
                                X             Y             Z
Electronic contribution:      1.87386      -0.36877       0.95889
Nuclear contribution   :     -2.11708       0.56731      -1.02978
                        -----------------------------------------
Total Dipole Moment    :     -0.24322       0.19855      -0.07090
                        -----------------------------------------
Magnitude (a.u.)       :      0.32188
Magnitude (Debye)      :      0.81814

------------------------------------------------------------------------------
                                ORCA EPR/NMR CALCULATION
------------------------------------------------------------------------------

GBWName                      ... /home/jan/SoftwareDevelopment/karminus/output/olyp_ccpvdz/acetaldehyde_dimethyl_acetale/acetaldehyde_dimethyl_acetale.gbw
Electron density file        ... /home/jan/SoftwareDevelopment/karminus/output/olyp_ccpvdz/acetaldehyde_dimethyl_acetale/acetaldehyde_dimethyl_acetale.scfp.tmp
Spin density file            ... /home/jan/SoftwareDevelopment/karminus/output/olyp_ccpvdz/acetaldehyde_dimethyl_acetale/acetaldehyde_dimethyl_acetale.scfr.tmp
Treatment of gauge           ... GIAO (approximations 1/2el = 0,3)
Details of the CP(SCF) procedure:
       Solver   = POPLE   
       MaxIter  =    64   
       Tolerance=    1.000e-06
       Op-0     =   0- 24 =>  25-133
Multiplicity                 ... 1
g-tensor                     ... 0
NMR chemical shifts          ... 1
Number of nuclei for epr/nmr ... 16
   Nucleus:   0C 
       Hyperfine : Isotope=   13 I=   0.500 P= 134.188
       Quadrupole: Isotope=   13 I=   0.500 Q=   0.000
       Spin-Orbit: Zeff=   3.600
       rho(0)=N f(grad)=N a(iso)=N a(dip)=N a(orb)=N sigma(nmr)=Y
   Nucleus:   1C 
       Hyperfine : Isotope=   13 I=   0.500 P= 134.188
       Quadrupole: Isotope=   13 I=   0.500 Q=   0.000
       Spin-Orbit: Zeff=   3.600
       rho(0)=N f(grad)=N a(iso)=N a(dip)=N a(orb)=N sigma(nmr)=Y
   Nucleus:   2H 
       Hyperfine : Isotope=    1 I=   0.500 P= 533.552
       Quadrupole: Isotope=    2 I=   1.000 Q=   0.003
       Spin-Orbit: Zeff=   1.000
       rho(0)=N f(grad)=N a(iso)=N a(dip)=N a(orb)=N sigma(nmr)=Y
   Nucleus:   3H 
       Hyperfine : Isotope=    1 I=   0.500 P= 533.552
       Quadrupole: Isotope=    2 I=   1.000 Q=   0.003
       Spin-Orbit: Zeff=   1.000
       rho(0)=N f(grad)=N a(iso)=N a(dip)=N a(orb)=N sigma(nmr)=Y
   Nucleus:   4H 
       Hyperfine : Isotope=    1 I=   0.500 P= 533.552
       Quadrupole: Isotope=    2 I=   1.000 Q=   0.003
       Spin-Orbit: Zeff=   1.000
       rho(0)=N f(grad)=N a(iso)=N a(dip)=N a(orb)=N sigma(nmr)=Y
   Nucleus:   5O 
       Hyperfine : Isotope=   17 I=   2.500 P= -72.357
       Quadrupole: Isotope=   17 I=   2.500 Q=  -0.026
       Spin-Orbit: Zeff=   5.600
       rho(0)=N f(grad)=N a(iso)=N a(dip)=N a(orb)=N sigma(nmr)=Y
   Nucleus:   6O 
       Hyperfine : Isotope=   17 I=   2.500 P= -72.357
       Quadrupole: Isotope=   17 I=   2.500 Q=  -0.026
       Spin-Orbit: Zeff=   5.600
       rho(0)=N f(grad)=N a(iso)=N a(dip)=N a(orb)=N sigma(nmr)=Y
   Nucleus:   7H 
       Hyperfine : Isotope=    1 I=   0.500 P= 533.552
       Quadrupole: Isotope=    2 I=   1.000 Q=   0.003
       Spin-Orbit: Zeff=   1.000
       rho(0)=N f(grad)=N a(iso)=N a(dip)=N a(orb)=N sigma(nmr)=Y
   Nucleus:   8C 
       Hyperfine : Isotope=   13 I=   0.500 P= 134.188
       Quadrupole: Isotope=   13 I=   0.500 Q=   0.000
       Spin-Orbit: Zeff=   3.600
       rho(0)=N f(grad)=N a(iso)=N a(dip)=N a(orb)=N sigma(nmr)=Y
   Nucleus:   9H 
       Hyperfine : Isotope=    1 I=   0.500 P= 533.552
       Quadrupole: Isotope=    2 I=   1.000 Q=   0.003
       Spin-Orbit: Zeff=   1.000
       rho(0)=N f(grad)=N a(iso)=N a(dip)=N a(orb)=N sigma(nmr)=Y
   Nucleus:  10H 
       Hyperfine : Isotope=    1 I=   0.500 P= 533.552
       Quadrupole: Isotope=    2 I=   1.000 Q=   0.003
       Spin-Orbit: Zeff=   1.000
       rho(0)=N f(grad)=N a(iso)=N a(dip)=N a(orb)=N sigma(nmr)=Y
   Nucleus:  11H 
       Hyperfine : Isotope=    1 I=   0.500 P= 533.552
       Quadrupole: Isotope=    2 I=   1.000 Q=   0.003
       Spin-Orbit: Zeff=   1.000
       rho(0)=N f(grad)=N a(iso)=N a(dip)=N a(orb)=N sigma(nmr)=Y
   Nucleus:  12C 
       Hyperfine : Isotope=   13 I=   0.500 P= 134.188
       Quadrupole: Isotope=   13 I=   0.500 Q=   0.000
       Spin-Orbit: Zeff=   3.600
       rho(0)=N f(grad)=N a(iso)=N a(dip)=N a(orb)=N sigma(nmr)=Y
   Nucleus:  13H 
       Hyperfine : Isotope=    1 I=   0.500 P= 533.552
       Quadrupole: Isotope=    2 I=   1.000 Q=   0.003
       Spin-Orbit: Zeff=   1.000
       rho(0)=N f(grad)=N a(iso)=N a(dip)=N a(orb)=N sigma(nmr)=Y
   Nucleus:  14H 
       Hyperfine : Isotope=    1 I=   0.500 P= 533.552
       Quadrupole: Isotope=    2 I=   1.000 Q=   0.003
       Spin-Orbit: Zeff=   1.000
       rho(0)=N f(grad)=N a(iso)=N a(dip)=N a(orb)=N sigma(nmr)=Y
   Nucleus:  15H 
       Hyperfine : Isotope=    1 I=   0.500 P= 533.552
       Quadrupole: Isotope=    2 I=   1.000 Q=   0.003
       Spin-Orbit: Zeff=   1.000
       rho(0)=N f(grad)=N a(iso)=N a(dip)=N a(orb)=N sigma(nmr)=Y
Using LibInt in CPSCF-CP

Forming RHS of the CP-SCF equations         ... 
Calculating right hand sides for GIAO treatment (new)  ... 
  Entering RightHandSide GIAO. ScalHFX=    0.0000 NeedHFX=0
     -> 1-electron GIAO integrals will be done analytically
     -> RI used in SCF and no Fock exchange. RIJK enforced by the user
     Making grid for GIAO integrations   ... done
     Test of existence of the V matrix   = 1
     Test of existence of the VCD matrix = 1
     Test of existence of the VO matrix  = 0
     Warning: RI is turned on for GIAO but the V matrix or its Cholesky decomposition are not found - making it
     Calculating V           ... done
     Cholesky decomposition  ... done
     Storing V and VCD       ... done
     Cholesky decomposition-2... done
     Storing VO              ... done
  Getting the pre-screening matrix        ... done
  Extracting occupied and virtual blocks  ... 
  Operator  0  NO=  25 NV= 109 
  One-electron GIAO integrals             ...   done
  Transforming and RHS contribution       ...   done
  Calculating F[B](P)                     ...  (RI-JK)
---------------------
RI-GIAO-TRANSFORMATION (AUX index driven)
----------------------

Dimension of the orbital-basis         ... 134
Dimension of the aux-basis             ... 404
Number of (i,a) MOs                    ... 25,109
Number of ij,ia,ab pairs               ... 625,2725,11881
Transformation of internal MOs         ...    0-  24
Transformation of internal/external MOs...    0-  24 to   25- 133

Mapping shells                                 ... done
Making shell addresses                         ... done
Figuring out significant basis function pairs  ... done
  N(Pairs)         ... 9045
  N(Strong pairs)  ... 8982
  Mem-Available    ... 1024 MB
  (p,q) per batch  ... 41521
  N(Batches)       ... 1
Preparing matrix containers                    ... done
Preparing AO buffer                            ... done
Calculating AO integrals and transforming AUX  ... done
Finished RI-GIAO integral generation and aux-index transformation in  3.591 sec
Mapping the MO pairs                            ... done
Getting memory                                  ... done
Second Phase: sorting and transformation of MO indices
Memory available                       ... 1024 MB 
Max. # Aux fcns treated in a batch     ... 404    
Initializing the MO transformation process      ... done
Batch   0: Q=   0 ...  403
   Reading      ... done
   Transforming ... done
Finished transformation of the MO indices in  1.195 sec
Initializing the sorting process                ... done

IJ-Resorting
# of internal pairs                    ... 625
# batches for internal pairs           ... 1
   (0) Reading      ... done
   (0) Writing      ... done
   (1) Reading      ... done
   (1) Writing      ... done
   (2) Reading      ... done
   (2) Writing      ... done
   (3) Reading      ... done
   (3) Writing      ... done
(ij|v) resorting done in     0.019 sec

IA-Resorting
# of internal orbitals                 ... 25
# batches for internal orbitals        ... 1
   (0) Reading      ... done
   (0) Writing      ... done
   (1) Reading      ... done
   (1) Writing      ... done
   (2) Reading      ... done
   (2) Writing      ... done
   (3) Reading      ... done
   (3) Writing      ... done
(ia|v) resorting done in     0.034 sec

  Resorting completed in     0.054 sec
RI-GIAO-Integral transformation completed in     4.886 sec
Reading RI-integrals ... done
Doing RI-JK          ... done
 => dG/dB done
  RI-JK GIAO contributions                ...   done
  DFT XC-terms                            ... done
  Transforming to MO basis/RHS contribs.  ... done
  GIAO profiling information: 
    Total GIAO time               ...       9.6 sec
       Grid setup                 ...       0.4 sec (  4.0%)
       RI-V-matrix setup          ...       0.0 sec (  0.5%)
       GIAO 1-electron integrals  ...       0.0 sec (  0.4%)
       GIAO RI-JK                 ...       3.1 sec ( 32.0%)
       GIAO RI integral trafo     ...       4.9 sec ( 50.6%)
       GIAO XC-terms              ...       1.2 sec ( 12.5%)

  GIAO right hand side done


Forming final perturbed densities           ... done
Transforming perturbed density to AO basis  ...  done

Magnetic field perturbation calculated in  9.734 sec

---------------
CHEMICAL SHIFTS
---------------

Note: using conversion factor for au to ppm alpha^2/2 =   26.625677252 
Doing GIAO para- and diamagnetic shielding integrals analytically     ...done
Doing remaining GIAO terms numerically                                ...done
 --------------
 Nucleus   0C :
 --------------

Diamagnetic contribution to the shielding tensor (ppm) : 
           254.133          0.384         0.946
            19.941        246.975         2.763
             7.193          3.277       250.373

Paramagnetic contribution to the shielding tensor (ppm): 
           -94.416          9.844        -3.979
            -8.427        -59.409         8.000
           -10.804          7.119       -83.295

Total shielding tensor (ppm): 
           159.717         10.229        -3.033
            11.513        187.566        10.764
            -3.612         10.397       167.077


 Diagonalized sT*s matrix:
 
 sDSO           247.867          248.609          255.005  iso=     250.493
 sPSO           -95.355          -81.112          -60.652  iso=     -79.040
        ---------------  ---------------  ---------------
 Total          152.512          167.496          194.353  iso=     171.454

 --------------
 Nucleus   1C :
 --------------

Diamagnetic contribution to the shielding tensor (ppm) : 
           261.741         14.704        -0.215
            31.110        268.413         6.620
           -54.102         34.461       255.601

Paramagnetic contribution to the shielding tensor (ppm): 
          -168.928        -11.846       -27.805
           -30.516       -174.706        -7.915
            21.774        -33.573      -168.691

Total shielding tensor (ppm): 
            92.813          2.858       -28.020
             0.595         93.707        -1.295
           -32.328          0.887        86.911


 Diagonalized sT*s matrix:
 
 sDSO           230.179          269.249          286.328  iso=     261.918
 sPSO          -170.652         -175.592         -166.080  iso=    -170.775
        ---------------  ---------------  ---------------
 Total           59.526           93.657          120.247  iso=      91.144

 --------------
 Nucleus   2H :
 --------------

Diamagnetic contribution to the shielding tensor (ppm) : 
            36.117          1.127        -3.067
            21.637         29.885        -5.807
           -17.166          1.625        35.281

Paramagnetic contribution to the shielding tensor (ppm): 
            -8.563          0.142         1.126
           -20.080          3.276         2.330
            16.091         -3.973        -5.043

Total shielding tensor (ppm): 
            27.553          1.269        -1.941
             1.557         33.161        -3.477
            -1.076         -2.349        30.238


 Diagonalized sT*s matrix:
 
 sDSO            28.332           32.211           40.739  iso=      33.761
 sPSO            -1.458           -3.596           -5.276  iso=      -3.444
        ---------------  ---------------  ---------------
 Total           26.874           28.615           35.463  iso=      30.317

 --------------
 Nucleus   3H :
 --------------

Diamagnetic contribution to the shielding tensor (ppm) : 
            38.518         -1.495        -5.479
             7.673         39.129         1.785
             5.705          0.324        50.475

Paramagnetic contribution to the shielding tensor (ppm): 
            -8.660         -0.917         3.688
           -11.043         -6.759         0.523
            -8.497          2.194       -22.487

Total shielding tensor (ppm): 
            29.859         -2.412        -1.791
            -3.369         32.370         2.308
            -2.791          2.517        27.987


 Diagonalized sT*s matrix:
 
 sDSO            47.233           42.147           38.742  iso=      42.707
 sPSO           -20.833          -14.000           -3.073  iso=     -12.635
        ---------------  ---------------  ---------------
 Total           26.401           28.147           35.669  iso=      30.072

 --------------
 Nucleus   4H :
 --------------

Diamagnetic contribution to the shielding tensor (ppm) : 
            39.865         -1.274         9.455
            13.660         22.400         6.325
            23.759         -3.968        25.259

Paramagnetic contribution to the shielding tensor (ppm): 
            -9.138          1.769        -6.796
           -11.596          7.820        -3.431
           -20.271          5.601         4.690

Total shielding tensor (ppm): 
            30.727          0.495         2.659
             2.065         30.220         2.894
             3.488          1.633        29.949


 Diagonalized sT*s matrix:
 
 sDSO            16.893           22.882           47.749  iso=      29.175
 sPSO            10.039            6.297          -12.964  iso=       1.124
        ---------------  ---------------  ---------------
 Total           26.933           29.179           34.785  iso=      30.299

 --------------
 Nucleus   5O :
 --------------

Diamagnetic contribution to the shielding tensor (ppm) : 
           387.049         20.015       -16.350
            19.974        426.870       -12.944
           -15.953        -25.860       357.408

Paramagnetic contribution to the shielding tensor (ppm): 
          -106.650        -31.678       -52.575
            -7.415       -149.796        15.772
           -51.977          5.405      -100.465

Total shielding tensor (ppm): 
           280.399        -11.663       -68.925
            12.559        277.074         2.828
           -67.930        -20.455       256.943


 Diagonalized sT*s matrix:
 
 sDSO           353.721          421.383          396.222  iso=     390.442
 sPSO          -154.912         -144.464          -57.535  iso=    -118.970
        ---------------  ---------------  ---------------
 Total          198.810          276.919          338.687  iso=     271.472

 --------------
 Nucleus   6O :
 --------------

Diamagnetic contribution to the shielding tensor (ppm) : 
           407.586        -21.927        15.907
           -17.941        379.881        11.995
           -11.749          9.111       397.539

Paramagnetic contribution to the shielding tensor (ppm): 
          -160.143         25.503       -86.945
            -1.690       -115.311       -31.262
           -48.167        -15.201      -109.854

Total shielding tensor (ppm): 
           247.443          3.576       -71.038
           -19.630        264.570       -19.267
           -59.916         -6.090       287.685


 Diagonalized sT*s matrix:
 
 sDSO           400.297          389.156          395.553  iso=     395.002
 sPSO          -204.031         -122.184          -59.093  iso=    -128.436
        ---------------  ---------------  ---------------
 Total          196.266          266.972          336.460  iso=     266.566

 --------------
 Nucleus   7H :
 --------------

Diamagnetic contribution to the shielding tensor (ppm) : 
            39.367          7.292         8.904
             5.214         44.547        -2.031
           -20.273         16.948        57.484

Paramagnetic contribution to the shielding tensor (ppm): 
           -12.940         -6.845        -7.414
            -5.264        -18.373        -0.603
            23.088        -19.032       -30.882

Total shielding tensor (ppm): 
            26.427          0.447         1.489
            -0.050         26.174        -2.633
             2.815         -2.084        26.602


 Diagonalized sT*s matrix:
 
 sDSO            55.423           47.905           38.069  iso=      47.132
 sPSO           -32.281          -21.395           -8.518  iso=     -20.732
        ---------------  ---------------  ---------------
 Total           23.142           26.510           29.551  iso=      26.401

 --------------
 Nucleus   8C :
 --------------

Diamagnetic contribution to the shielding tensor (ppm) : 
           241.540        -20.555         5.718
           -14.673        218.705         0.489
             8.958         -7.351       208.120

Paramagnetic contribution to the shielding tensor (ppm): 
           -86.035         -3.436        21.336
            -4.295        -76.562       -19.438
            13.286         -9.722       -74.778

Total shielding tensor (ppm): 
           155.505        -23.992        27.055
           -18.968        142.144       -18.950
            22.244        -17.073       133.342


 Diagonalized sT*s matrix:
 
 sDSO           211.573          209.982          246.810  iso=     222.788
 sPSO           -95.191          -83.648          -58.536  iso=     -79.125
        ---------------  ---------------  ---------------
 Total          116.382          126.334          188.274  iso=     143.663

 --------------
 Nucleus   9H :
 --------------

Diamagnetic contribution to the shielding tensor (ppm) : 
            40.766         -9.052        -0.045
             5.272          6.775        -3.416
             2.934         -0.561         6.107

Paramagnetic contribution to the shielding tensor (ppm): 
            -6.873          9.817         1.844
            -6.097         19.497         2.509
             0.191          0.722        18.286

Total shielding tensor (ppm): 
            33.893          0.765         1.799
            -0.826         26.272        -0.907
             3.125          0.160        24.393


 Diagonalized sT*s matrix:
 
 sDSO             6.798            7.233           39.617  iso=      17.883
 sPSO            16.946           19.090           -5.125  iso=      10.303
        ---------------  ---------------  ---------------
 Total           23.744           26.323           34.492  iso=      28.186

 --------------
 Nucleus  10H :
 --------------

Diamagnetic contribution to the shielding tensor (ppm) : 
            28.178        -10.843         0.972
            -4.179         15.224        -1.510
             8.776         -9.304        18.018

Paramagnetic contribution to the shielding tensor (ppm): 
             0.282          9.114         3.036
             3.823         11.365        -1.875
            -6.681          7.186        11.218

Total shielding tensor (ppm): 
            28.460         -1.729         4.008
            -0.356         26.589        -3.385
             2.095         -2.118        29.236


 Diagonalized sT*s matrix:
 
 sDSO            14.088           16.372           30.959  iso=      20.473
 sPSO            10.533           10.182            2.150  iso=       7.622
        ---------------  ---------------  ---------------
 Total           24.621           26.554           33.109  iso=      28.095

 --------------
 Nucleus  11H :
 --------------

Diamagnetic contribution to the shielding tensor (ppm) : 
            19.019        -18.170         2.149
           -20.545         19.449         9.035
            -4.862          4.349         9.542

Paramagnetic contribution to the shielding tensor (ppm): 
             9.989         13.758        -2.037
            16.962         11.336        -6.930
             5.696         -4.696        15.253

Total shielding tensor (ppm): 
            29.008         -4.412         0.112
            -3.583         30.785         2.105
             0.834         -0.347        24.795


 Diagonalized sT*s matrix:
 
 sDSO             3.641            5.645           38.724  iso=      16.003
 sPSO            20.600           20.697           -4.719  iso=      12.193
        ---------------  ---------------  ---------------
 Total           24.241           26.343           34.005  iso=      28.196

 --------------
 Nucleus  12C :
 --------------

Diamagnetic contribution to the shielding tensor (ppm) : 
           221.615         10.604         1.383
           -20.575        261.914         1.454
            -4.856         11.488       198.135

Paramagnetic contribution to the shielding tensor (ppm): 
          -100.051        -14.887         0.926
            12.021        -73.104        13.700
             6.461         -0.530       -84.768

Total shielding tensor (ppm): 
           121.564         -4.283         2.309
            -8.553        188.809        15.154
             1.605         10.957       113.367


 Diagonalized sT*s matrix:
 
 sDSO           200.131          218.678          262.854  iso=     227.221
 sPSO           -89.786          -96.797          -71.341  iso=     -85.974
        ---------------  ---------------  ---------------
 Total          110.346          121.881          191.513  iso=     141.247

 --------------
 Nucleus  13H :
 --------------

Diamagnetic contribution to the shielding tensor (ppm) : 
            26.256         17.041        -1.762
            -3.555         42.955        -1.430
            -0.408          0.799        27.217

Paramagnetic contribution to the shielding tensor (ppm): 
             2.841        -14.131         1.846
             8.305        -11.558         2.295
             1.620          0.188        -2.471

Total shielding tensor (ppm): 
            29.097          2.910         0.083
             4.750         31.397         0.864
             1.212          0.987        24.746


 Diagonalized sT*s matrix:
 
 sDSO            27.613           25.941           42.874  iso=      32.143
 sPSO            -3.000            0.309           -8.498  iso=      -3.730
        ---------------  ---------------  ---------------
 Total           24.613           26.250           34.376  iso=      28.413

 --------------
 Nucleus  14H :
 --------------

Diamagnetic contribution to the shielding tensor (ppm) : 
            20.028          5.580        -2.606
           -11.258         37.717         4.548
           -15.051          8.380        22.476

Paramagnetic contribution to the shielding tensor (ppm): 
             6.393         -3.278         1.793
            11.904         -7.880         0.416
            14.868         -5.933         3.842

Total shielding tensor (ppm): 
            26.421          2.302        -0.813
             0.646         29.837         4.964
            -0.182          2.447        26.318


 Diagonalized sT*s matrix:
 
 sDSO            17.274           26.360           36.587  iso=      26.740
 sPSO             6.193            0.407           -4.244  iso=       0.785
        ---------------  ---------------  ---------------
 Total           23.466           26.767           32.343  iso=      27.525

 --------------
 Nucleus  15H :
 --------------

Diamagnetic contribution to the shielding tensor (ppm) : 
            13.518          1.162         5.406
           -20.660         39.463        -5.839
            14.895         -4.871        13.137

Paramagnetic contribution to the shielding tensor (ppm): 
            12.520         -1.572        -3.239
            19.108         -6.806         1.754
           -14.000          3.136        12.280

Total shielding tensor (ppm): 
            26.038         -0.410         2.167
            -1.551         32.657        -4.085
             0.895         -1.735        25.417


 Diagonalized sT*s matrix:
 
 sDSO             6.433           16.371           43.315  iso=      22.040
 sPSO            17.353           10.015           -9.374  iso=       5.998
        ---------------  ---------------  ---------------
 Total           23.786           26.386           33.942  iso=      28.038



--------------------------
CHEMICAL SHIELDING SUMMARY (ppm)
--------------------------


  Nucleus  Element    Isotropic     Anisotropy
  -------  -------  ------------   ------------
      0       C          171.454         34.349 
      1       C           91.144         43.656 
      2       H           30.317          7.719 
      3       H           30.072          8.395 
      4       H           30.299          6.729 
      5       O          271.472        100.823 
      6       O          266.566        104.841 
      7       H           26.401          4.725 
      8       C          143.663         66.916 
      9       H           28.186          9.459 
     10       H           28.095          7.522 
     11       H           28.196          8.713 
     12       C          141.247         75.400 
     13       H           28.413          8.944 
     14       H           27.525          7.226 
     15       H           28.038          8.856 



Timings for individual modules:

Sum of individual times         ...       52.991 sec (=   0.883 min)
GTO integral calculation        ...        0.828 sec (=   0.014 min)   1.6 %
SCF iterations                  ...       14.206 sec (=   0.237 min)  26.8 %
SCF-level EPR/NMR calculation   ...       37.956 sec (=   0.633 min)  71.6 %
                             ****ORCA TERMINATED NORMALLY****
TOTAL RUN TIME: 0 days 0 hours 0 minutes 53 seconds 108 msec
