
                                 *****************
                                 * O   R   C   A *
                                 *****************

           --- An Ab Initio, DFT and Semiempirical electronic structure package ---

                  #######################################################
                  #                        -***-                        #
                  #  Department of molecular theory and spectroscopy    #
                  #              Directorship: Frank Neese              #
                  # Max Planck Institute for Chemical Energy Conversion #
                  #                  D-45470 Muelheim/Ruhr              #
                  #                       Germany                       #
                  #                                                     #
                  #                  All rights reserved                #
                  #                        -***-                        #
                  #######################################################


                         Program Version 4.0.0.2 - RELEASE -


 With contributions from (in alphabetic order):
   Daniel Aravena         : Magnetic Properties
   Michael Atanasov       : Ab Initio Ligand Field Theory
   Ute Becker             : Parallelization
   Martin Brehm           : Molecular dynamics
   Dmytro Bykov           : SCF Hessian
   Vijay G. Chilkuri      : MRCI spin determinant printing
   Dipayan Datta          : RHF DLPNO-CCSD density
   Achintya Kumar Dutta   : EOM-CC, STEOM-CC
   Dmitry Ganyushin       : Spin-Orbit,Spin-Spin,Magnetic field MRCI
   Yang Guo               : DLPNO-NEVPT2, CIM, IAO-localization
   Andreas Hansen         : Spin unrestricted coupled pair/coupled cluster methods
   Lee Huntington         : MR-EOM, pCC
   Robert Izsak           : Overlap fitted RIJCOSX, COSX-SCS-MP3, EOM
   Christian Kollmar      : KDIIS, OOCD, Brueckner-CCSD(T), CCSD density
   Simone Kossmann        : Meta GGA functionals, TD-DFT gradient, OOMP2, MP2 Hessian
   Martin Krupicka        : AUTO-CI
   Dagmar Lenk            : GEPOL surface
   Dimitrios Liakos       : Extrapolation schemes; parallel MDCI
   Dimitrios Manganas     : ROCIS; embedding schemes
   Dimitrios Pantazis     : SARC Basis sets
   Taras Petrenko         : DFT Hessian,TD-DFT gradient, ASA, ECA, R-Raman, ABS, FL, XAS/XES, NRVS
   Peter Pinski           : DLPNO-MP2
   Christoph Reimann      : Effective Core Potentials
   Marius Retegan         : Local ZFS, SOC
   Christoph Riplinger    : Optimizer, TS searches, QM/MM, DLPNO-CCSD(T), (RO)-DLPNO pert. Triples
   Tobias Risthaus        : Range-separated hybrids, TD-DFT gradient, RPA, STAB
   Michael Roemelt        : Restricted open shell CIS
   Masaaki Saitow         : Open-shell DLPNO
   Barbara Sandhoefer     : DKH picture change effects
   Kantharuban Sivalingam : CASSCF convergence, NEVPT2, FIC-MRCI
   Georgi Stoychev        : AutoAux
   Boris Wezisla          : Elementary symmetry handling
   Frank Wennmohs         : Technical directorship


 We gratefully acknowledge several colleagues who have allowed us to
 interface, adapt or use parts of their codes:
   Stefan Grimme, W. Hujo, H. Kruse,             : VdW corrections, initial TS optimization,
                  C. Bannwarth                     DFT functionals, gCP, sTDA/sTD-DF
   Ed Valeev                                     : LibInt (2-el integral package), F12 methods
   Garnet Chan, S. Sharma, J. Yang, R. Olivares  : DMRG
   Ulf Ekstrom                                   : XCFun DFT Library
   Mihaly Kallay                                 : mrcc  (arbitrary order and MRCC methods)
   Jiri Pittner, Ondrej Demel                    : Mk-CCSD
   Frank Weinhold                                : gennbo (NPA and NBO analysis)
   Christopher J. Cramer and Donald G. Truhlar   : smd solvation model


 Your calculation uses the libint2 library for the computation of 2-el integrals
 For citations please refer to: http://libint.valeyev.net

 This ORCA versions uses:
   CBLAS   interface :  Fast vector & matrix operations
   LAPACKE interface :  Fast linear algebra routines
   SCALAPACK package :  Parallel linear algebra routines




*****************************************
The coordinations will be read from file: guess.xyz
*****************************************



Information: The global flag for chemical shieldings has been found
             ==>> will calculate the chemical shifts for all atoms in the system

Your calculation utilizes the basis: cc-pVDZ 
       H, B-Ne : Obtained from the ccRepo (grant-hill.group.shef.ac.uk/ccrepo) Feb. 2017
                 T. H. Dunning, Jr., J. Chem. Phys. 90, 1007 (1989)
            He : Obtained from the ccRepo (grant-hill.group.shef.ac.uk/ccrepo) Feb. 2017
                 D. E. Woon, T. H. Dunning, Jr., J. Chem. Phys. 100, 2975 (1994)
  Li-Be, Na-Mg : Obtained from the ccRepo (grant-hill.group.shef.ac.uk/ccrepo) Feb. 2017
                 B. P. Prascher, D. E. Woon, K. A. Peterson, T. H. Dunning, Jr., A. K. Wilson, Theor. Chem. Acc. 128, 69 (2011)
         Al-Ar : Obtained from the ccRepo (grant-hill.group.shef.ac.uk/ccrepo) Feb. 2017
                 D. E. Woon, T. H. Dunning, Jr., J. Chem. Phys. 98, 1358 (1993)
            Ca : Obtained from the Peterson Research Group Website (tyr0.chem.wsu.edu/~kipeters) Feb. 2017
                 J. Koput, K. A. Peterson, J. Phys. Chem. 106, 9595 (2002)
         Sc-Zn : Obtained from the ccRepo (grant-hill.group.shef.ac.uk/ccrepo) Feb. 2017
                 N. B. Balabanov, K. A. Peterson, J. Chem. Phys. 123, 064107 (2005)
                 N. B. Balabanov, K. A. Peterson, J. Chem. Phys. 125, 074110 (2006)
         Ga-Kr : Obtained from the ccRepo (grant-hill.group.shef.ac.uk/ccrepo) Feb. 2017
                 A. K. Wilson, D. E. Woon, K. A. Peterson, T. H. Dunning, Jr., J. Chem. Phys. 110, 7667 (1999)

Your calculation utilizes the auxiliary basis: def2/J
   F. Weigend, Phys. Chem. Chem. Phys. 8, 1057 (2006).

================================================================================
                                        WARNINGS
                       Please study these warnings very carefully!
================================================================================

Warning: TCutStore was < 0. Adjusted to Thresh (uncritical)

INFO   : the flag for use of LIBINT has been found!

CheckInput: checking for shifts: .
================================================================================
                                       INPUT FILE
================================================================================
NAME = /home/jan/SoftwareDevelopment/karminus/output/olyp_ccpvdz/tetrahydrofuran_2_4_dione/tetrahydrofuran_2_4_dione.in
|  1> !cc-pvdz OLYP NMR
|  2> 
|  3> *xyzfile 0 1 guess.xyz
|  4> 
|  5> 
|  6>                          ****END OF INPUT****
================================================================================

                       ****************************
                       * Single Point Calculation *
                       ****************************

---------------------------------
CARTESIAN COORDINATES (ANGSTROEM)
---------------------------------
  C     -5.855260    5.927550    0.121830
  C     -4.648140    4.989110    0.105650
  C     -6.976200    5.166380    0.123700
  H     -5.658460    6.992790    0.130930
  O     -8.356250    5.386040    0.137790
  C     -6.539750    3.719470    0.127870
  O     -5.119760    3.715010    0.067510
  O     -3.473780    5.245140    0.118960
  H     -8.863490    6.227590    0.150790
  H     -6.881780    3.130070   -0.725970
  H     -6.798910    3.189600    1.046600

----------------------------
CARTESIAN COORDINATES (A.U.)
----------------------------
  NO LB      ZA    FRAG     MASS         X           Y           Z
   0 C     6.0000    0    12.011  -11.064838   11.201446    0.230225
   1 C     6.0000    0    12.011   -8.783712    9.428052    0.199650
   2 C     6.0000    0    12.011  -13.183107    9.763043    0.233759
   3 H     1.0000    0     1.008  -10.692940   13.214458    0.247422
   4 O     8.0000    0    15.999  -15.791024   10.178141    0.260385
   5 C     6.0000    0    12.011  -12.358336    7.028780    0.241639
   6 O     8.0000    0    15.999   -9.674944    7.020351    0.127575
   7 O     8.0000    0    15.999   -6.564493    9.911878    0.224802
   8 H     1.0000    0     1.008  -16.749569   11.768440    0.284952
   9 H     1.0000    0     1.008  -13.004680    5.914975   -1.371884
  10 H     1.0000    0     1.008  -12.848078    6.027470    1.977787

--------------------------------
INTERNAL COORDINATES (ANGSTROEM)
--------------------------------
 C      0   0   0     0.000000000000     0.00000000     0.00000000
 C      1   0   0     1.529074923083     0.00000000     0.00000000
 C      1   2   0     1.354950091110   107.95927580     0.00000000
 H      1   2   3     1.083304808260   117.39805099   179.88551754
 O      3   1   2     1.397493129214   136.77589378   179.85232418
 C      3   1   2     1.511308882889   107.39289852     0.75260879
 O      2   1   3     1.359121368385   107.55942300     1.38143444
 O      2   1   3     1.202019104091   129.82443943   181.21844892
 H      5   3   1     0.982683987913   130.12637199     0.00000000
 H      6   3   1     1.092437470293   115.08511525   239.83446422
 H      6   3   1     1.091783373843   113.47918447   113.64796003

---------------------------
INTERNAL COORDINATES (A.U.)
---------------------------
 C      0   0   0     0.000000000000     0.00000000     0.00000000
 C      1   0   0     2.889532842873     0.00000000     0.00000000
 C      1   2   0     2.560484597330   107.95927580     0.00000000
 H      1   2   3     2.047149407172   117.39805099   179.88551754
 O      3   1   2     2.640879288251   136.77589378   179.85232418
 C      3   1   2     2.855959892423   107.39289852     0.75260879
 O      2   1   3     2.568367169007   107.55942300     1.38143444
 O      2   1   3     2.271486914474   129.82443943   181.21844892
 H      5   3   1     1.857003613345   130.12637199     0.00000000
 H      6   3   1     2.064407637287   115.08511525   239.83446422
 H      6   3   1     2.063171574132   113.47918447   113.64796003

---------------------
BASIS SET INFORMATION
---------------------
There are 3 groups of distinct atoms

 Group   1 Type C   : 17s4p1d contracted to 3s2p1d pattern {881/31/1}
 Group   2 Type H   : 4s1p contracted to 2s1p pattern {31/1}
 Group   3 Type O   : 17s4p1d contracted to 3s2p1d pattern {881/31/1}

Atom   0C    basis set group =>   1
Atom   1C    basis set group =>   1
Atom   2C    basis set group =>   1
Atom   3H    basis set group =>   2
Atom   4O    basis set group =>   3
Atom   5C    basis set group =>   1
Atom   6O    basis set group =>   3
Atom   7O    basis set group =>   3
Atom   8H    basis set group =>   2
Atom   9H    basis set group =>   2
Atom  10H    basis set group =>   2
-------------------------------
AUXILIARY BASIS SET INFORMATION
-------------------------------
There are 3 groups of distinct atoms

 Group   1 Type C   : 12s5p4d2f1g contracted to 6s4p3d1f1g pattern {711111/2111/211/2/1}
 Group   2 Type H   : 5s2p1d contracted to 3s1p1d pattern {311/2/1}
 Group   3 Type O   : 12s5p4d2f1g contracted to 6s4p3d1f1g pattern {711111/2111/211/2/1}

Atom   0C    basis set group =>   1
Atom   1C    basis set group =>   1
Atom   2C    basis set group =>   1
Atom   3H    basis set group =>   2
Atom   4O    basis set group =>   3
Atom   5C    basis set group =>   1
Atom   6O    basis set group =>   3
Atom   7O    basis set group =>   3
Atom   8H    basis set group =>   2
Atom   9H    basis set group =>   2
Atom  10H    basis set group =>   2
------------------------------------------------------------------------------
                           ORCA GTO INTEGRAL CALCULATION
                           -- RI-GTO INTEGRALS CHOSEN --
------------------------------------------------------------------------------

                         BASIS SET STATISTICS AND STARTUP INFO

Gaussian basis set:
 # of primitive gaussian shells          ...  174
 # of primitive gaussian functions       ...  266
 # of contracted shells                  ...   54
 # of contracted basis functions         ...  118
 Highest angular momentum                ...    2
 Maximum contraction depth               ...    8
Auxiliary gaussian basis set:
 # of primitive gaussian shells          ...  200
 # of primitive gaussian functions       ...  554
 # of contracted shells                  ...  125
 # of contracted aux-basis functions     ...  387
 Highest angular momentum                ...    4
 Maximum contraction depth               ...    7
Ratio of auxiliary to basis functions    ...  3.28
Integral package used                  ... LIBINT
 One Electron integrals                  ... done
 Ordering auxiliary basis shells         ... done
 Integral threshhold             Thresh  ...  1.000e-10
 Primitive cut-off               TCut    ...  1.000e-11
 Pre-screening matrix                    ... done
 Shell pair data                         ... 
 Ordering of the shell pairs             ... done (   0.000 sec) 1454 of 1485 pairs
 Determination of significant pairs      ... done (   0.000 sec)
 Creation of shell pair data             ... done (   0.002 sec)
 Storage of shell pair data              ... done (   0.001 sec)
 Shell pair data done in (   0.003 sec)
 Computing two index integrals           ... done
 Cholesky decomposition of the V-matrix  ... done


Timings:
 Total evaluation time                   ...   0.178 sec (  0.003 min)
 One electron matrix time                ...   0.012 sec (  0.000 min) =  6.9%
 Schwartz matrix evaluation time         ...   0.142 sec (  0.002 min) = 79.4%
 Two index repulsion integral time       ...   0.003 sec (  0.000 min) =  1.8%
 Cholesky decomposition of V             ...   0.002 sec (  0.000 min) =  1.2%
 Three index repulsion integral time     ...   0.000 sec (  0.000 min) =  0.0%

-------------------------------------------------------------------------------
                                 ORCA SCF
-------------------------------------------------------------------------------

------------
SCF SETTINGS
------------
Hamiltonian:
 Density Functional     Method          .... DFT(GTOs)
 Exchange Functional    Exchange        .... OPTX
 Correlation Functional Correlation     .... LYP
 Gradients option       PostSCFGGA      .... off
 RI-approximation to the Coulomb term is turned on
   Number of auxiliary basis functions  .... 387


General Settings:
 Integral files         IntName         .... /home/jan/SoftwareDevelopment/karminus/output/olyp_ccpvdz/tetrahydrofuran_2_4_dione/tetrahydrofuran_2_4_dione
 Hartree-Fock type      HFTyp           .... RHF
 Total Charge           Charge          ....    0
 Multiplicity           Mult            ....    1
 Number of Electrons    NEL             ....   52
 Basis Dimension        Dim             ....  118
 Nuclear Repulsion      ENuc            ....    288.8556159605 Eh

Convergence Acceleration:
 DIIS                   CNVDIIS         .... on
   Start iteration      DIISMaxIt       ....    12
   Startup error        DIISStart       ....  0.200000
   # of expansion vecs  DIISMaxEq       ....     5
   Bias factor          DIISBfac        ....   1.050
   Max. coefficient     DIISMaxC        ....  10.000
 Newton-Raphson         CNVNR           .... off
 SOSCF                  CNVSOSCF        .... on
   Start iteration      SOSCFMaxIt      ....   150
   Startup grad/error   SOSCFStart      ....  0.003300
 Level Shifting         CNVShift        .... on
   Level shift para.    LevelShift      ....    0.2500
   Turn off err/grad.   ShiftErr        ....    0.0010
 Zerner damping         CNVZerner       .... off
 Static damping         CNVDamp         .... on
   Fraction old density DampFac         ....    0.7000
   Max. Damping (<1)    DampMax         ....    0.9800
   Min. Damping (>=0)   DampMin         ....    0.0000
   Turn off err/grad.   DampErr         ....    0.1000
 Fernandez-Rico         CNVRico         .... off

SCF Procedure:
 Maximum # iterations   MaxIter         ....   125
 SCF integral mode      SCFMode         .... Direct
   Integral package                     .... LIBINT
 Reset frequeny         DirectResetFreq ....    20
 Integral Threshold     Thresh          ....  1.000e-10 Eh
 Primitive CutOff       TCut            ....  1.000e-11 Eh

Convergence Tolerance:
 Convergence Check Mode ConvCheckMode   .... Total+1el-Energy
 Convergence forced     ConvForced      .... 0
 Energy Change          TolE            ....  1.000e-06 Eh
 1-El. energy change                    ....  1.000e-03 Eh
 Orbital Gradient       TolG            ....  5.000e-05
 Orbital Rotation angle TolX            ....  5.000e-05
 DIIS Error             TolErr          ....  1.000e-06


Diagonalization of the overlap matrix:
Smallest eigenvalue                        ... 1.205e-03
Time for diagonalization                   ...    0.002 sec
Threshold for overlap eigenvalues          ... 1.000e-08
Number of eigenvalues below threshold      ... 0
Time for construction of square roots      ...    0.000 sec
Total time needed                          ...    0.003 sec

-------------------
DFT GRID GENERATION
-------------------

General Integration Accuracy     IntAcc      ...  4.340
Radial Grid Type                 RadialGrid  ... Gauss-Chebyshev
Angular Grid (max. acc.)         AngularGrid ... Lebedev-110
Angular grid pruning method      GridPruning ... 3 (G Style)
Weight generation scheme         WeightScheme... Becke
Basis function cutoff            BFCut       ...    1.0000e-10
Integration weight cutoff        WCut        ...    1.0000e-14
Grids for H and He will be reduced by one unit

# of grid points (after initial pruning)     ...  14948 (   0.0 sec)
# of grid points (after weights+screening)   ...  14167 (   0.0 sec)
nearest neighbour list constructed           ...    0.0 sec
Grid point re-assignment to atoms done       ...    0.0 sec
Grid point division into batches done        ...    0.0 sec
Reduced shell lists constructed in    0.3 sec

Total number of grid points                  ...    14167
Total number of batches                      ...      227
Average number of points per batch           ...       62
Average number of grid points per atom       ...     1288
Average number of shells per batch           ...    42.26 (78.26%)
Average number of basis functions per batch  ...    90.70 (76.86%)
Average number of large shells per batch     ...    33.25 (78.69%)
Average number of large basis fcns per batch ...    72.19 (79.60%)
Maximum spatial batch extension              ...  19.05, 19.47, 25.60 au
Average spatial batch extension              ...   4.13,  3.84,  4.15 au

Time for grid setup =    0.296 sec

------------------------------
INITIAL GUESS: MODEL POTENTIAL
------------------------------
Loading Hartree-Fock densities                     ... done
Calculating cut-offs                               ... done
Setting up the integral package                    ... done
Initializing the effective Hamiltonian             ... done
Starting the Coulomb interaction                   ... done (   0.2 sec)
Reading the grid                                   ... done
Mapping shells                                     ... done
Starting the XC term evaluation                    ... done (   0.3 sec)
  promolecular density results
     # of electrons  =     52.005169023
     EX              =    -46.272663294
     EC              =     -1.816488075
     EX+EC           =    -48.089151369
Transforming the Hamiltonian                       ... done (   0.0 sec)
Diagonalizing the Hamiltonian                      ... done (   0.0 sec)
Back transforming the eigenvectors                 ... done (   0.0 sec)
Now organizing SCF variables                       ... done
                      ------------------
                      INITIAL GUESS DONE (   0.9 sec)
                      ------------------
--------------
SCF ITERATIONS
--------------
ITER       Energy         Delta-E        Max-DP      RMS-DP      [F,P]     Damp
               ***  Starting incremental Fock matrix formation  ***
  0   -380.2094262002   0.000000000000 0.11745985  0.00356831  0.2639557 0.7000
  1   -380.3063529316  -0.096926731452 0.06452780  0.00210109  0.0777408 0.7000
                               ***Turning on DIIS***
  2   -380.3328392393  -0.026486307639 0.06931973  0.00273301  0.0254919 0.0000
  3   -380.3890825793  -0.056243340078 0.04096692  0.00147680  0.0409713 0.0000
  4   -380.3965630934  -0.007480514082 0.01483754  0.00049635  0.0308232 0.0000
  5   -380.3986671496  -0.002104056150 0.00357951  0.00017870  0.0046594 0.0000
                      *** Initiating the SOSCF procedure ***
                           *** Shutting down DIIS ***
                      *** Re-Reading the Fockian *** 
                      *** Removing any level shift *** 
ITER      Energy       Delta-E        Grad      Rot      Max-DP    RMS-DP
  6   -380.39877043  -0.0001032773  0.000481  0.000481  0.001296  0.000065
               *** Restarting incremental Fock matrix formation ***
  7   -380.39879199  -0.0000215669  0.000196  0.000666  0.000898  0.000037
  8   -380.39879115   0.0000008392  0.000328  0.000710  0.000761  0.000021
  9   -380.39879284  -0.0000016856  0.000124  0.000482  0.000344  0.000017
                 **** Energy Check signals convergence ****
              ***Rediagonalizing the Fockian in SOSCF/NRSCF***

               *****************************************************
               *                     SUCCESS                       *
               *           SCF CONVERGED AFTER  10 CYCLES          *
               *****************************************************

Setting up the final grid:

General Integration Accuracy     IntAcc      ...  4.670
Radial Grid Type                 RadialGrid  ... Gauss-Chebyshev
Angular Grid (max. acc.)         AngularGrid ... Lebedev-302
Angular grid pruning method      GridPruning ... 3 (G Style)
Weight generation scheme         WeightScheme... Becke
Basis function cutoff            BFCut       ...    1.0000e-10
Integration weight cutoff        WCut        ...    1.0000e-14
Grids for H and He will be reduced by one unit

# of grid points (after initial pruning)     ...  57060 (   0.0 sec)
# of grid points (after weights+screening)   ...  53377 (   0.1 sec)
nearest neighbour list constructed           ...    0.0 sec
Grid point re-assignment to atoms done       ...    0.0 sec
Grid point division into batches done        ...    0.2 sec
Reduced shell lists constructed in    1.1 sec

Total number of grid points                  ...    53377
Total number of batches                      ...      839
Average number of points per batch           ...       63
Average number of grid points per atom       ...     4852
Average number of shells per batch           ...    38.43 (71.18%)
Average number of basis functions per batch  ...    82.27 (69.72%)
Average number of large shells per batch     ...    29.39 (76.47%)
Average number of large basis fcns per batch ...    63.49 (77.17%)
Maximum spatial batch extension              ...  17.31, 19.32, 17.32 au
Average spatial batch extension              ...   2.63,  2.68,  2.76 au

Final grid set up in    1.2 sec
Final integration                            ... done (   1.0 sec)
Change in XC energy                          ...     0.000282870
Integrated number of electrons               ...    51.999989528
Previous integrated no of electrons          ...    52.001644041

----------------
TOTAL SCF ENERGY
----------------

Total Energy       :         -380.39850977 Eh          -10351.16969 eV

Components:
Nuclear Repulsion  :          288.85561596 Eh            7860.16091 eV
Electronic Energy  :         -669.25412573 Eh          -18211.33061 eV
One Electron Energy:        -1091.75000516 Eh          -29708.02797 eV
Two Electron Energy:          422.49587944 Eh           11496.69736 eV

Virial components:
Potential Energy   :         -758.67122345 Eh          -20644.49354 eV
Kinetic Energy     :          378.27271368 Eh           10293.32384 eV
Virial Ratio       :            2.00561974


DFT components:
N(Alpha)           :       25.999994763871 electrons
N(Beta)            :       25.999994763871 electrons
N(Total)           :       51.999989527743 electrons
E(X)               :      -47.052882885032 Eh       
E(C)               :       -1.825434634735 Eh       
E(XC)              :      -48.878317519767 Eh       

---------------
SCF CONVERGENCE
---------------

  Last Energy change         ...    2.0516e-07  Tolerance :   1.0000e-06
  Last MAX-Density change    ...    3.2443e-04  Tolerance :   1.0000e-05
  Last RMS-Density change    ...    7.6929e-06  Tolerance :   1.0000e-06
  Last Orbital Gradient      ...    1.3222e-04  Tolerance :   5.0000e-05
  Last Orbital Rotation      ...    1.6271e-04  Tolerance :   5.0000e-05

             **** THE GBW FILE WAS UPDATED (/home/jan/SoftwareDevelopment/karminus/output/olyp_ccpvdz/tetrahydrofuran_2_4_dione/tetrahydrofuran_2_4_dione.gbw) ****
             **** DENSITY FILE WAS UPDATED (/home/jan/SoftwareDevelopment/karminus/output/olyp_ccpvdz/tetrahydrofuran_2_4_dione/tetrahydrofuran_2_4_dione.scfp.tmp) ****
             **** ENERGY FILE WAS UPDATED (/home/jan/SoftwareDevelopment/karminus/output/olyp_ccpvdz/tetrahydrofuran_2_4_dione/tetrahydrofuran_2_4_dione.en.tmp) ****
----------------
ORBITAL ENERGIES
----------------

  NO   OCC          E(Eh)            E(eV) 
   0   2.0000     -18.830819      -512.4126 
   1   2.0000     -18.810822      -511.8685 
   2   2.0000     -18.742315      -510.0043 
   3   2.0000     -10.021509      -272.6991 
   4   2.0000     -10.012880      -272.4643 
   5   2.0000      -9.988098      -271.7900 
   6   2.0000      -9.928028      -270.1554 
   7   2.0000      -1.017894       -27.6983 
   8   2.0000      -0.980103       -26.6700 
   9   2.0000      -0.931461       -25.3463 
  10   2.0000      -0.738007       -20.0822 
  11   2.0000      -0.667313       -18.1585 
  12   2.0000      -0.584779       -15.9126 
  13   2.0000      -0.514497       -14.0002 
  14   2.0000      -0.485588       -13.2135 
  15   2.0000      -0.447244       -12.1701 
  16   2.0000      -0.442191       -12.0326 
  17   2.0000      -0.380987       -10.3672 
  18   2.0000      -0.355880        -9.6840 
  19   2.0000      -0.353600        -9.6219 
  20   2.0000      -0.340297        -9.2599 
  21   2.0000      -0.331908        -9.0317 
  22   2.0000      -0.304284        -8.2800 
  23   2.0000      -0.244514        -6.6536 
  24   2.0000      -0.222399        -6.0518 
  25   2.0000      -0.211661        -5.7596 
  26   0.0000      -0.048362        -1.3160 
  27   0.0000      -0.017992        -0.4896 
  28   0.0000       0.044478         1.2103 
  29   0.0000       0.049396         1.3441 
  30   0.0000       0.069361         1.8874 
  31   0.0000       0.098138         2.6705 
  32   0.0000       0.104742         2.8502 
  33   0.0000       0.141117         3.8400 
  34   0.0000       0.167362         4.5541 
  35   0.0000       0.203108         5.5269 
  36   0.0000       0.282633         7.6908 
  37   0.0000       0.320610         8.7242 
  38   0.0000       0.365489         9.9455 
  39   0.0000       0.400463        10.8971 
  40   0.0000       0.409423        11.1410 
  41   0.0000       0.443357        12.0644 
  42   0.0000       0.444943        12.1075 
  43   0.0000       0.485594        13.2137 
  44   0.0000       0.499797        13.6002 
  45   0.0000       0.507057        13.7977 
  46   0.0000       0.516098        14.0437 
  47   0.0000       0.557122        15.1601 
  48   0.0000       0.567767        15.4497 
  49   0.0000       0.570385        15.5210 
  50   0.0000       0.597230        16.2514 
  51   0.0000       0.611223        16.6322 
  52   0.0000       0.637399        17.3445 
  53   0.0000       0.672912        18.3109 
  54   0.0000       0.688305        18.7297 
  55   0.0000       0.805490        21.9185 
  56   0.0000       0.809568        22.0295 
  57   0.0000       0.839368        22.8404 
  58   0.0000       0.870104        23.6767 
  59   0.0000       0.892115        24.2757 
  60   0.0000       0.907684        24.6993 
  61   0.0000       0.930744        25.3268 
  62   0.0000       0.971229        26.4285 
  63   0.0000       0.991034        26.9674 
  64   0.0000       1.016235        27.6532 
  65   0.0000       1.087899        29.6032 
  66   0.0000       1.113525        30.3006 
  67   0.0000       1.120582        30.4926 
  68   0.0000       1.133788        30.8520 
  69   0.0000       1.184575        32.2339 
  70   0.0000       1.222635        33.2696 
  71   0.0000       1.255696        34.1692 
  72   0.0000       1.297689        35.3119 
  73   0.0000       1.339973        36.4625 
  74   0.0000       1.346883        36.6506 
  75   0.0000       1.390441        37.8358 
  76   0.0000       1.429614        38.9018 
  77   0.0000       1.437605        39.1192 
  78   0.0000       1.476189        40.1691 
  79   0.0000       1.521742        41.4087 
  80   0.0000       1.564022        42.5592 
  81   0.0000       1.581006        43.0214 
  82   0.0000       1.611085        43.8399 
  83   0.0000       1.634680        44.4819 
  84   0.0000       1.652043        44.9544 
  85   0.0000       1.680854        45.7384 
  86   0.0000       1.711109        46.5616 
  87   0.0000       1.757140        47.8142 
  88   0.0000       1.831263        49.8312 
  89   0.0000       1.871703        50.9316 
  90   0.0000       1.893054        51.5126 
  91   0.0000       1.901054        51.7303 
  92   0.0000       1.907786        51.9135 
  93   0.0000       1.972137        53.6646 
  94   0.0000       2.024710        55.0952 
  95   0.0000       2.065948        56.2173 
  96   0.0000       2.100942        57.1695 
  97   0.0000       2.166106        58.9427 
  98   0.0000       2.227957        60.6258 
  99   0.0000       2.320143        63.1343 
 100   0.0000       2.344605        63.8000 
 101   0.0000       2.411195        65.6120 
 102   0.0000       2.542337        69.1805 
 103   0.0000       2.604538        70.8731 
 104   0.0000       2.637772        71.7774 
 105   0.0000       2.733311        74.3772 
 106   0.0000       2.741805        74.6083 
 107   0.0000       2.800300        76.2000 
 108   0.0000       2.861781        77.8730 
 109   0.0000       2.914721        79.3136 
 110   0.0000       2.925841        79.6162 
 111   0.0000       3.050658        83.0126 
 112   0.0000       3.054023        83.1042 
 113   0.0000       3.210530        87.3629 
 114   0.0000       3.265331        88.8542 
 115   0.0000       3.377973        91.9193 
 116   0.0000       3.436381        93.5087 
 117   0.0000       3.651264        99.3559 

                    ********************************
                    * MULLIKEN POPULATION ANALYSIS *
                    ********************************

-----------------------
MULLIKEN ATOMIC CHARGES
-----------------------
   0 C :   -0.036578
   1 C :    0.200912
   2 C :    0.037748
   3 H :   -0.030767
   4 O :   -0.213515
   5 C :    0.271652
   6 O :   -0.234373
   7 O :   -0.219171
   8 H :    0.155993
   9 H :    0.033360
  10 H :    0.034740
Sum of atomic charges:   -0.0000000

--------------------------------
MULLIKEN REDUCED ORBITAL CHARGES
--------------------------------
  0 C s       :     3.209451  s :     3.209451
      pz      :     1.090418  p :     2.775511
      px      :     0.876892
      py      :     0.808200
      dz2     :     0.003114  d :     0.051616
      dxz     :     0.008104
      dyz     :     0.006780
      dx2y2   :     0.016135
      dxy     :     0.017484
  1 C s       :     3.050205  s :     3.050205
      pz      :     0.854974  p :     2.512406
      px      :     0.849471
      py      :     0.807961
      dz2     :     0.009997  d :     0.236477
      dxz     :     0.046171
      dyz     :     0.025691
      dx2y2   :     0.065715
      dxy     :     0.088904
  2 C s       :     3.215027  s :     3.215027
      pz      :     0.964472  p :     2.610930
      px      :     0.644457
      py      :     1.002000
      dz2     :     0.007967  d :     0.136294
      dxz     :     0.034139
      dyz     :     0.011580
      dx2y2   :     0.049776
      dxy     :     0.032833
  3 H s       :     0.997167  s :     0.997167
      pz      :     0.007739  p :     0.033600
      px      :     0.005543
      py      :     0.020318
  4 O s       :     3.710702  s :     3.710702
      pz      :     1.786382  p :     4.493052
      px      :     1.287552
      py      :     1.419118
      dz2     :     0.001680  d :     0.009761
      dxz     :     0.001951
      dyz     :     0.000401
      dx2y2   :     0.003594
      dxy     :     0.002136
  5 C s       :     2.978645  s :     2.978645
      pz      :     0.992279  p :     2.645617
      px      :     0.725614
      py      :     0.927724
      dz2     :     0.012595  d :     0.104086
      dxz     :     0.024674
      dyz     :     0.015566
      dx2y2   :     0.028135
      dxy     :     0.023116
  6 O s       :     3.780758  s :     3.780758
      pz      :     1.724608  p :     4.435910
      px      :     1.265539
      py      :     1.445763
      dz2     :     0.002386  d :     0.017705
      dxz     :     0.002177
      dyz     :     0.002797
      dx2y2   :     0.006707
      dxy     :     0.003637
  7 O s       :     3.751710  s :     3.751710
      pz      :     1.390070  p :     4.448618
      px      :     1.360301
      py      :     1.698246
      dz2     :     0.002125  d :     0.018844
      dxz     :     0.005493
      dyz     :     0.000271
      dx2y2   :     0.006149
      dxy     :     0.004806
  8 H s       :     0.761908  s :     0.761908
      pz      :     0.019855  p :     0.082100
      px      :     0.023785
      py      :     0.038459
  9 H s       :     0.935961  s :     0.935961
      pz      :     0.015688  p :     0.030679
      px      :     0.004764
      py      :     0.010227
 10 H s       :     0.934661  s :     0.934661
      pz      :     0.016961  p :     0.030599
      px      :     0.004179
      py      :     0.009460


                     *******************************
                     * LOEWDIN POPULATION ANALYSIS *
                     *******************************

----------------------
LOEWDIN ATOMIC CHARGES
----------------------
   0 C :   -0.108760
   1 C :   -0.174889
   2 C :   -0.037383
   3 H :    0.020340
   4 O :    0.051640
   5 C :    0.018796
   6 O :    0.099631
   7 O :   -0.014928
   8 H :    0.080088
   9 H :    0.032324
  10 H :    0.033142

-------------------------------
LOEWDIN REDUCED ORBITAL CHARGES
-------------------------------
  0 C s       :     2.861693  s :     2.861693
      pz      :     1.042345  p :     3.076805
      px      :     1.019500
      py      :     1.014959
      dz2     :     0.015386  d :     0.170262
      dxz     :     0.019319
      dyz     :     0.010868
      dx2y2   :     0.054947
      dxy     :     0.069742
  1 C s       :     2.851168  s :     2.851168
      pz      :     0.844611  p :     2.759628
      px      :     1.014109
      py      :     0.900908
      dz2     :     0.032814  d :     0.564093
      dxz     :     0.093595
      dyz     :     0.056428
      dx2y2   :     0.160082
      dxy     :     0.221174
  2 C s       :     2.839552  s :     2.839552
      pz      :     0.927553  p :     2.851297
      px      :     0.881166
      py      :     1.042577
      dz2     :     0.022387  d :     0.346534
      dxz     :     0.077719
      dyz     :     0.023716
      dx2y2   :     0.132288
      dxy     :     0.090424
  3 H s       :     0.889937  s :     0.889937
      pz      :     0.021380  p :     0.089723
      px      :     0.016600
      py      :     0.051744
  4 O s       :     3.368728  s :     3.368728
      pz      :     1.732917  p :     4.557651
      px      :     1.328960
      py      :     1.495774
      dz2     :     0.003316  d :     0.021981
      dxz     :     0.003150
      dyz     :     0.000175
      dx2y2   :     0.008427
      dxy     :     0.006912
  5 C s       :     2.818687  s :     2.818687
      pz      :     1.068354  p :     2.887824
      px      :     0.807442
      py      :     1.012029
      dz2     :     0.037981  d :     0.274693
      dxz     :     0.057973
      dyz     :     0.047677
      dx2y2   :     0.076722
      dxy     :     0.054341
  6 O s       :     3.413430  s :     3.413430
      pz      :     1.673685  p :     4.453842
      px      :     1.303317
      py      :     1.476840
      dz2     :     0.004196  d :     0.033097
      dxz     :     0.003610
      dyz     :     0.003401
      dx2y2   :     0.014511
      dxy     :     0.007379
  7 O s       :     3.495161  s :     3.495161
      pz      :     1.365779  p :     4.487233
      px      :     1.467398
      py      :     1.654056
      dz2     :     0.004723  d :     0.032534
      dxz     :     0.006726
      dyz     :     0.000339
      dx2y2   :     0.012901
      dxy     :     0.007844
  8 H s       :     0.724019  s :     0.724019
      pz      :     0.050716  p :     0.195893
      px      :     0.050390
      py      :     0.094788
  9 H s       :     0.886735  s :     0.886735
      pz      :     0.038730  p :     0.080942
      px      :     0.015142
      py      :     0.027069
 10 H s       :     0.885541  s :     0.885541
      pz      :     0.042240  p :     0.081317
      px      :     0.013819
      py      :     0.025258


                      *****************************
                      * MAYER POPULATION ANALYSIS *
                      *****************************

  NA   - Mulliken gross atomic population
  ZA   - Total nuclear charge
  QA   - Mulliken gross atomic charge
  VA   - Mayer's total valence
  BVA  - Mayer's bonded valence
  FA   - Mayer's free valence

  ATOM       NA         ZA         QA         VA         BVA        FA
  0 C      6.0366     6.0000    -0.0366     3.7201     3.7201    -0.0000
  1 C      5.7991     6.0000     0.2009     4.3912     4.3912    -0.0000
  2 C      5.9623     6.0000     0.0377     3.9866     3.9866    -0.0000
  3 H      1.0308     1.0000    -0.0308     1.0000     1.0000    -0.0000
  4 O      8.2135     8.0000    -0.2135     2.2836     2.2836    -0.0000
  5 C      5.7283     6.0000     0.2717     3.9392     3.9392     0.0000
  6 O      8.2344     8.0000    -0.2344     2.3233     2.3233     0.0000
  7 O      8.2192     8.0000    -0.2192     2.4026     2.4026     0.0000
  8 H      0.8440     1.0000     0.1560     1.0276     1.0276    -0.0000
  9 H      0.9666     1.0000     0.0334     0.9740     0.9740     0.0000
 10 H      0.9653     1.0000     0.0347     0.9709     0.9709    -0.0000

  Mayer bond orders larger than 0.1
B(  0-C ,  1-C ) :   1.0120 B(  0-C ,  2-C ) :   1.6088 B(  0-C ,  3-H ) :   0.9703 
B(  1-C ,  6-O ) :   1.1337 B(  1-C ,  7-O ) :   2.1692 B(  2-C ,  4-O ) :   1.1946 
B(  2-C ,  5-C ) :   1.0269 B(  4-O ,  8-H ) :   0.9649 B(  5-C ,  6-O ) :   1.0158 
B(  5-C ,  9-H ) :   0.9315 B(  5-C , 10-H ) :   0.9280 

-------
TIMINGS
-------

Total SCF time: 0 days 0 hours 0 min 9 sec 

Total time                  ....       9.740 sec
Sum of individual times     ....       9.724 sec  ( 99.8%)

Fock matrix formation       ....       7.630 sec  ( 78.3%)
  Split-RI-J                ....       3.589 sec  ( 47.0% of F)
  XC integration            ....       4.035 sec  ( 52.9% of F)
    Basis function eval.    ....       2.875 sec  ( 71.3% of XC)
    Density eval.           ....       0.361 sec  (  8.9% of XC)
    XC-Functional eval.     ....       0.087 sec  (  2.2% of XC)
    XC-Potential eval.      ....       0.666 sec  ( 16.5% of XC)
Diagonalization             ....       0.014 sec  (  0.1%)
Density matrix formation    ....       0.001 sec  (  0.0%)
Population analysis         ....       0.003 sec  (  0.0%)
Initial guess               ....       0.561 sec  (  5.8%)
Orbital Transformation      ....       0.000 sec  (  0.0%)
Orbital Orthonormalization  ....       0.000 sec  (  0.0%)
DIIS solution               ....       0.004 sec  (  0.0%)
SOSCF solution              ....       0.005 sec  (  0.0%)
Grid generation             ....       1.505 sec  ( 15.5%)

-------------------------   --------------------
FINAL SINGLE POINT ENERGY      -380.398509765024
-------------------------   --------------------


                            ***************************************
                            *     ORCA property calculations      *
                            ***************************************

                                    ---------------------
                                    Active property flags
                                    ---------------------
   (+) Dipole Moment
   (+) Chemical Shifts


------------------------------------------------------------------------------
                       ORCA ELECTRIC PROPERTIES CALCULATION
------------------------------------------------------------------------------

Dipole Moment Calculation                       ... on
Quadrupole Moment Calculation                   ... off
Polarizability Calculation                      ... off
GBWName                                         ... /home/jan/SoftwareDevelopment/karminus/output/olyp_ccpvdz/tetrahydrofuran_2_4_dione/tetrahydrofuran_2_4_dione.gbw
Electron density file                           ... /home/jan/SoftwareDevelopment/karminus/output/olyp_ccpvdz/tetrahydrofuran_2_4_dione/tetrahydrofuran_2_4_dione.scfp.tmp

-------------
DIPOLE MOMENT
-------------
                                X             Y             Z
Electronic contribution:      2.41019       0.36264      -0.09412
Nuclear contribution   :     -4.39526       0.06331       0.13171
                        -----------------------------------------
Total Dipole Moment    :     -1.98507       0.42594       0.03759
                        -----------------------------------------
Magnitude (a.u.)       :      2.03060
Magnitude (Debye)      :      5.16137

------------------------------------------------------------------------------
                                ORCA EPR/NMR CALCULATION
------------------------------------------------------------------------------

GBWName                      ... /home/jan/SoftwareDevelopment/karminus/output/olyp_ccpvdz/tetrahydrofuran_2_4_dione/tetrahydrofuran_2_4_dione.gbw
Electron density file        ... /home/jan/SoftwareDevelopment/karminus/output/olyp_ccpvdz/tetrahydrofuran_2_4_dione/tetrahydrofuran_2_4_dione.scfp.tmp
Spin density file            ... /home/jan/SoftwareDevelopment/karminus/output/olyp_ccpvdz/tetrahydrofuran_2_4_dione/tetrahydrofuran_2_4_dione.scfr.tmp
Treatment of gauge           ... GIAO (approximations 1/2el = 0,3)
Details of the CP(SCF) procedure:
       Solver   = POPLE   
       MaxIter  =    64   
       Tolerance=    1.000e-06
       Op-0     =   0- 25 =>  26-117
Multiplicity                 ... 1
g-tensor                     ... 0
NMR chemical shifts          ... 1
Number of nuclei for epr/nmr ... 11
   Nucleus:   0C 
       Hyperfine : Isotope=   13 I=   0.500 P= 134.188
       Quadrupole: Isotope=   13 I=   0.500 Q=   0.000
       Spin-Orbit: Zeff=   3.600
       rho(0)=N f(grad)=N a(iso)=N a(dip)=N a(orb)=N sigma(nmr)=Y
   Nucleus:   1C 
       Hyperfine : Isotope=   13 I=   0.500 P= 134.188
       Quadrupole: Isotope=   13 I=   0.500 Q=   0.000
       Spin-Orbit: Zeff=   3.600
       rho(0)=N f(grad)=N a(iso)=N a(dip)=N a(orb)=N sigma(nmr)=Y
   Nucleus:   2C 
       Hyperfine : Isotope=   13 I=   0.500 P= 134.188
       Quadrupole: Isotope=   13 I=   0.500 Q=   0.000
       Spin-Orbit: Zeff=   3.600
       rho(0)=N f(grad)=N a(iso)=N a(dip)=N a(orb)=N sigma(nmr)=Y
   Nucleus:   3H 
       Hyperfine : Isotope=    1 I=   0.500 P= 533.552
       Quadrupole: Isotope=    2 I=   1.000 Q=   0.003
       Spin-Orbit: Zeff=   1.000
       rho(0)=N f(grad)=N a(iso)=N a(dip)=N a(orb)=N sigma(nmr)=Y
   Nucleus:   4O 
       Hyperfine : Isotope=   17 I=   2.500 P= -72.357
       Quadrupole: Isotope=   17 I=   2.500 Q=  -0.026
       Spin-Orbit: Zeff=   5.600
       rho(0)=N f(grad)=N a(iso)=N a(dip)=N a(orb)=N sigma(nmr)=Y
   Nucleus:   5C 
       Hyperfine : Isotope=   13 I=   0.500 P= 134.188
       Quadrupole: Isotope=   13 I=   0.500 Q=   0.000
       Spin-Orbit: Zeff=   3.600
       rho(0)=N f(grad)=N a(iso)=N a(dip)=N a(orb)=N sigma(nmr)=Y
   Nucleus:   6O 
       Hyperfine : Isotope=   17 I=   2.500 P= -72.357
       Quadrupole: Isotope=   17 I=   2.500 Q=  -0.026
       Spin-Orbit: Zeff=   5.600
       rho(0)=N f(grad)=N a(iso)=N a(dip)=N a(orb)=N sigma(nmr)=Y
   Nucleus:   7O 
       Hyperfine : Isotope=   17 I=   2.500 P= -72.357
       Quadrupole: Isotope=   17 I=   2.500 Q=  -0.026
       Spin-Orbit: Zeff=   5.600
       rho(0)=N f(grad)=N a(iso)=N a(dip)=N a(orb)=N sigma(nmr)=Y
   Nucleus:   8H 
       Hyperfine : Isotope=    1 I=   0.500 P= 533.552
       Quadrupole: Isotope=    2 I=   1.000 Q=   0.003
       Spin-Orbit: Zeff=   1.000
       rho(0)=N f(grad)=N a(iso)=N a(dip)=N a(orb)=N sigma(nmr)=Y
   Nucleus:   9H 
       Hyperfine : Isotope=    1 I=   0.500 P= 533.552
       Quadrupole: Isotope=    2 I=   1.000 Q=   0.003
       Spin-Orbit: Zeff=   1.000
       rho(0)=N f(grad)=N a(iso)=N a(dip)=N a(orb)=N sigma(nmr)=Y
   Nucleus:  10H 
       Hyperfine : Isotope=    1 I=   0.500 P= 533.552
       Quadrupole: Isotope=    2 I=   1.000 Q=   0.003
       Spin-Orbit: Zeff=   1.000
       rho(0)=N f(grad)=N a(iso)=N a(dip)=N a(orb)=N sigma(nmr)=Y
Using LibInt in CPSCF-CP

Forming RHS of the CP-SCF equations         ... 
Calculating right hand sides for GIAO treatment (new)  ... 
  Entering RightHandSide GIAO. ScalHFX=    0.0000 NeedHFX=0
     -> 1-electron GIAO integrals will be done analytically
     -> RI used in SCF and no Fock exchange. RIJK enforced by the user
     Making grid for GIAO integrations   ... done
     Test of existence of the V matrix   = 1
     Test of existence of the VCD matrix = 1
     Test of existence of the VO matrix  = 0
     Warning: RI is turned on for GIAO but the V matrix or its Cholesky decomposition are not found - making it
     Calculating V           ... done
     Cholesky decomposition  ... done
     Storing V and VCD       ... done
     Cholesky decomposition-2... done
     Storing VO              ... done
  Getting the pre-screening matrix        ... done
  Extracting occupied and virtual blocks  ... 
  Operator  0  NO=  26 NV=  92 
  One-electron GIAO integrals             ...   done
  Transforming and RHS contribution       ...   done
  Calculating F[B](P)                     ...  (RI-JK)
---------------------
RI-GIAO-TRANSFORMATION (AUX index driven)
----------------------

Dimension of the orbital-basis         ... 118
Dimension of the aux-basis             ... 387
Number of (i,a) MOs                    ... 26,92
Number of ij,ia,ab pairs               ... 676,2392,8464
Transformation of internal MOs         ...    0-  25
Transformation of internal/external MOs...    0-  25 to   26- 117

Mapping shells                                 ... done
Making shell addresses                         ... done
Figuring out significant basis function pairs  ... done
  N(Pairs)         ... 7021
  N(Strong pairs)  ... 6824
  Mem-Available    ... 1024 MB
  (p,q) per batch  ... 43347
  N(Batches)       ... 1
Preparing matrix containers                    ... done
Preparing AO buffer                            ... done
Calculating AO integrals and transforming AUX  ... done
Finished RI-GIAO integral generation and aux-index transformation in  3.496 sec
Mapping the MO pairs                            ... done
Getting memory                                  ... done
Second Phase: sorting and transformation of MO indices
Memory available                       ... 1024 MB 
Max. # Aux fcns treated in a batch     ... 387    
Initializing the MO transformation process      ... done
Batch   0: Q=   0 ...  386
   Reading      ... done
   Transforming ... done
Finished transformation of the MO indices in  0.786 sec
Initializing the sorting process                ... done

IJ-Resorting
# of internal pairs                    ... 676
# batches for internal pairs           ... 1
   (0) Reading      ... done
   (0) Writing      ... done
   (1) Reading      ... done
   (1) Writing      ... done
   (2) Reading      ... done
   (2) Writing      ... done
   (3) Reading      ... done
   (3) Writing      ... done
(ij|v) resorting done in     0.018 sec

IA-Resorting
# of internal orbitals                 ... 26
# batches for internal orbitals        ... 1
   (0) Reading      ... done
   (0) Writing      ... done
   (1) Reading      ... done
   (1) Writing      ... done
   (2) Reading      ... done
   (2) Writing      ... done
   (3) Reading      ... done
   (3) Writing      ... done
(ia|v) resorting done in     0.032 sec

  Resorting completed in     0.050 sec
RI-GIAO-Integral transformation completed in     4.377 sec
Reading RI-integrals ... done
Doing RI-JK          ... done
 => dG/dB done
  RI-JK GIAO contributions                ...   done
  DFT XC-terms                            ... done
  Transforming to MO basis/RHS contribs.  ... done
  GIAO profiling information: 
    Total GIAO time               ...       8.3 sec
       Grid setup                 ...       0.3 sec (  3.5%)
       RI-V-matrix setup          ...       0.0 sec (  0.5%)
       GIAO 1-electron integrals  ...       0.0 sec (  0.4%)
       GIAO RI-JK                 ...       2.8 sec ( 33.2%)
       GIAO RI integral trafo     ...       4.4 sec ( 52.5%)
       GIAO XC-terms              ...       0.8 sec (  9.9%)

  GIAO right hand side done


Forming final perturbed densities           ... done
Transforming perturbed density to AO basis  ...  done

Magnetic field perturbation calculated in  8.405 sec

---------------
CHEMICAL SHIFTS
---------------

Note: using conversion factor for au to ppm alpha^2/2 =   26.625677252 
Doing GIAO para- and diamagnetic shielding integrals analytically     ...done
Doing remaining GIAO terms numerically                                ...done
 --------------
 Nucleus   0C :
 --------------

Diamagnetic contribution to the shielding tensor (ppm) : 
           259.300          5.458         0.666
            -4.256        265.287         0.529
             0.136          1.796       262.081

Paramagnetic contribution to the shielding tensor (ppm): 
          -183.188         52.518         0.965
            10.461       -206.205        -1.149
             1.673         -2.651      -109.309

Total shielding tensor (ppm): 
            76.113         57.976         1.630
             6.205         59.082        -0.620
             1.809         -0.855       152.772


 Diagonalized sT*s matrix:
 
 sDSO           261.392          263.173          262.103  iso=     262.223
 sPSO          -224.822         -164.586         -109.293  iso=    -166.234
        ---------------  ---------------  ---------------
 Total           36.570           98.586          152.810  iso=      95.989

 --------------
 Nucleus   1C :
 --------------

Diamagnetic contribution to the shielding tensor (ppm) : 
           265.495          4.507         0.691
            -3.899        265.166         1.486
             0.829          3.087       218.140

Paramagnetic contribution to the shielding tensor (ppm): 
          -180.290         10.427        -0.736
            29.125       -304.498        -4.041
             0.371         -4.885      -157.791

Total shielding tensor (ppm): 
            85.205         14.933        -0.044
            25.226        -39.333        -2.555
             1.200         -1.798        60.348


 Diagonalized sT*s matrix:
 
 sDSO           265.159          218.118          265.524  iso=     249.600
 sPSO          -306.071         -157.752         -178.757  iso=    -214.193
        ---------------  ---------------  ---------------
 Total          -40.912           60.366           86.766  iso=      35.407

 --------------
 Nucleus   2C :
 --------------

Diamagnetic contribution to the shielding tensor (ppm) : 
           261.520          0.749         1.462
            -8.458        255.194         0.307
             0.551         -0.108       313.456

Paramagnetic contribution to the shielding tensor (ppm): 
          -263.125         51.221        -0.482
            68.933       -269.420        -1.480
            -3.707         -0.787      -217.113

Total shielding tensor (ppm): 
            -1.604         51.970         0.980
            60.474        -14.226        -1.173
            -3.156         -0.895        96.343


 Diagonalized sT*s matrix:
 
 sDSO           253.713          263.374          313.084  iso=     276.724
 sPSO          -211.712         -320.828         -217.117  iso=    -249.886
        ---------------  ---------------  ---------------
 Total           42.001          -57.454           95.966  iso=      26.838

 --------------
 Nucleus   3H :
 --------------

Diamagnetic contribution to the shielding tensor (ppm) : 
            27.316          1.990         0.247
            -1.693         43.135         0.805
            -0.213          0.772         5.992

Paramagnetic contribution to the shielding tensor (ppm): 
             0.903          0.408        -0.246
             2.218        -16.397        -0.793
             0.285         -0.733        19.306

Total shielding tensor (ppm): 
            28.218          2.399         0.002
             0.525         26.738         0.012
             0.073          0.038        25.298


 Diagonalized sT*s matrix:
 
 sDSO             5.983           38.424           32.036  iso=      25.481
 sPSO            19.315          -12.583           -2.920  iso=       1.271
        ---------------  ---------------  ---------------
 Total           25.298           25.841           29.116  iso=      26.752

 --------------
 Nucleus   4O :
 --------------

Diamagnetic contribution to the shielding tensor (ppm) : 
           399.107        -14.072        -1.503
           -26.116        388.513         1.389
            -2.072          1.725       263.236

Paramagnetic contribution to the shielding tensor (ppm): 
          -193.956         25.283         2.830
            63.536       -261.975        -2.679
             2.022         -3.105        16.848

Total shielding tensor (ppm): 
           205.151         11.211         1.327
            37.420        126.538        -1.290
            -0.050         -1.380       280.084


 Diagonalized sT*s matrix:
 
 sDSO           398.318          389.331          263.207  iso=     350.285
 sPSO          -278.562         -177.411           16.891  iso=    -146.361
        ---------------  ---------------  ---------------
 Total          119.756          211.920          280.098  iso=     203.924

 --------------
 Nucleus   5C :
 --------------

Diamagnetic contribution to the shielding tensor (ppm) : 
           250.681         -3.431        -0.668
            -0.040        245.217        -0.187
            -3.417          0.410       233.112

Paramagnetic contribution to the shielding tensor (ppm): 
           -90.031          1.171        -1.330
            -2.434       -130.976         0.370
             0.955         -0.416      -134.936

Total shielding tensor (ppm): 
           160.650         -2.260        -1.998
            -2.474        114.242         0.183
            -2.462         -0.006        98.177


 Diagonalized sT*s matrix:
 
 sDSO           232.992          245.057          250.962  iso=     243.003
 sPSO          -134.894         -130.935          -90.112  iso=    -118.647
        ---------------  ---------------  ---------------
 Total           98.097          114.121          160.850  iso=     124.356

 --------------
 Nucleus   6O :
 --------------

Diamagnetic contribution to the shielding tensor (ppm) : 
           406.246         28.882        -1.163
             7.658        418.245         0.500
            -3.420          3.296       357.075

Paramagnetic contribution to the shielding tensor (ppm): 
          -458.244        -12.986         5.692
           -35.336       -167.587         1.050
            -1.503         -8.347      -170.137

Total shielding tensor (ppm): 
           -51.998         15.895         4.530
           -27.679        250.659         1.551
            -4.923         -5.051       186.938


 Diagonalized sT*s matrix:
 
 sDSO           410.802          357.350          413.414  iso=     393.855
 sPSO          -459.094         -170.787         -166.086  iso=    -265.322
        ---------------  ---------------  ---------------
 Total          -48.292          186.563          247.328  iso=     128.533

 --------------
 Nucleus   7O :
 --------------

Diamagnetic contribution to the shielding tensor (ppm) : 
           416.622          8.157         0.384
             5.760        400.094        -0.144
             0.668          0.539       412.029

Paramagnetic contribution to the shielding tensor (ppm): 
          -617.756        -67.250        -4.833
           -51.935       -573.195        -9.655
            -6.200        -11.508      -149.776

Total shielding tensor (ppm): 
          -201.134        -59.093        -4.449
           -46.176       -173.101        -9.799
            -5.532        -10.968       262.254


 Diagonalized sT*s matrix:
 
 sDSO           399.740          417.032          411.974  iso=     409.582
 sPSO          -532.489         -657.902         -150.336  iso=    -446.909
        ---------------  ---------------  ---------------
 Total         -132.749         -240.870          261.638  iso=     -37.327

 --------------
 Nucleus   8H :
 --------------

Diamagnetic contribution to the shielding tensor (ppm) : 
            31.254        -10.551        -0.390
           -13.225         34.395         0.792
            -0.448          0.866       -13.358

Paramagnetic contribution to the shielding tensor (ppm): 
            -2.642          5.416         0.300
             7.365         -7.017        -0.675
             0.259         -0.739        34.856

Total shielding tensor (ppm): 
            28.613         -5.136        -0.090
            -5.860         27.379         0.117
            -0.189          0.127        21.498


 Diagonalized sT*s matrix:
 
 sDSO           -13.371           21.224           44.438  iso=      17.430
 sPSO            34.865            1.240          -10.908  iso=       8.399
        ---------------  ---------------  ---------------
 Total           21.495           22.464           33.531  iso=      25.830

 --------------
 Nucleus   9H :
 --------------

Diamagnetic contribution to the shielding tensor (ppm) : 
            29.760          1.506         4.347
             7.275         28.137         7.073
            20.784         -3.286        37.225

Paramagnetic contribution to the shielding tensor (ppm): 
            -1.547          0.294        -2.592
            -6.345         -1.598        -4.742
           -19.308          6.953       -10.932

Total shielding tensor (ppm): 
            28.212          1.800         1.755
             0.930         26.540         2.332
             1.475          3.667        26.293


 Diagonalized sT*s matrix:
 
 sDSO            30.601           20.335           44.186  iso=      31.707
 sPSO            -7.198            6.302          -13.181  iso=      -4.692
        ---------------  ---------------  ---------------
 Total           23.403           26.637           31.004  iso=      27.015

 --------------
 Nucleus  10H :
 --------------

Diamagnetic contribution to the shielding tensor (ppm) : 
            28.438          1.136        -4.144
             6.488         27.501        -7.554
           -23.364          5.002        39.637

Paramagnetic contribution to the shielding tensor (ppm): 
            -0.552          0.339         2.228
            -5.762         -1.308         5.112
            21.648         -8.852       -12.739

Total shielding tensor (ppm): 
            27.886          1.476        -1.916
             0.726         26.193        -2.442
            -1.717         -3.850        26.898


 Diagonalized sT*s matrix:
 
 sDSO            30.787           19.442           45.347  iso=      31.859
 sPSO            -7.445            7.111          -14.265  iso=      -4.866
        ---------------  ---------------  ---------------
 Total           23.342           26.553           31.082  iso=      26.992



--------------------------
CHEMICAL SHIELDING SUMMARY (ppm)
--------------------------


  Nucleus  Element    Isotropic     Anisotropy
  -------  -------  ------------   ------------
      0       C           95.989         85.231 
      1       C           35.407         77.039 
      2       C           26.838        103.693 
      3       H           26.752          3.547 
      4       O          203.924        114.260 
      5       C          124.356         54.740 
      6       O          128.533        178.193 
      7       O          -37.327        448.448 
      8       H           25.830         11.551 
      9       H           27.015          5.984 
     10       H           26.992          6.134 



Timings for individual modules:

Sum of individual times         ...       31.407 sec (=   0.523 min)
GTO integral calculation        ...        0.198 sec (=   0.003 min)   0.6 %
SCF iterations                  ...        9.750 sec (=   0.163 min)  31.0 %
SCF-level EPR/NMR calculation   ...       21.458 sec (=   0.358 min)  68.3 %
                             ****ORCA TERMINATED NORMALLY****
TOTAL RUN TIME: 0 days 0 hours 0 minutes 31 seconds 506 msec
