16
	Energy:      12.6839150
C         -5.83658        1.91043       -0.25746
C         -5.42297        3.28408        0.30563
H         -6.18642        1.32936        0.60798
H         -5.00354        1.33466       -0.69952
H         -6.67942        1.89998       -0.94977
O         -4.65225        4.18939       -0.49529
O         -6.56451        3.87021        0.96615
H         -4.73993        2.99741        1.08916
C         -7.49304        4.56411        0.17204
H         -8.44047        4.02104        0.12821
H         -7.15970        4.78493       -0.85546
H         -7.67779        5.51650        0.67979
C         -4.74497        5.57743       -0.12641
H         -3.77695        6.08157       -0.07566
H         -5.24830        5.77130        0.83723
H         -5.31542        6.06301       -0.92092


