
                                 *****************
                                 * O   R   C   A *
                                 *****************

           --- An Ab Initio, DFT and Semiempirical electronic structure package ---

                  #######################################################
                  #                        -***-                        #
                  #  Department of molecular theory and spectroscopy    #
                  #              Directorship: Frank Neese              #
                  # Max Planck Institute for Chemical Energy Conversion #
                  #                  D-45470 Muelheim/Ruhr              #
                  #                       Germany                       #
                  #                                                     #
                  #                  All rights reserved                #
                  #                        -***-                        #
                  #######################################################


                         Program Version 4.0.0.2 - RELEASE -


 With contributions from (in alphabetic order):
   Daniel Aravena         : Magnetic Properties
   Michael Atanasov       : Ab Initio Ligand Field Theory
   Ute Becker             : Parallelization
   Martin Brehm           : Molecular dynamics
   Dmytro Bykov           : SCF Hessian
   Vijay G. Chilkuri      : MRCI spin determinant printing
   Dipayan Datta          : RHF DLPNO-CCSD density
   Achintya Kumar Dutta   : EOM-CC, STEOM-CC
   Dmitry Ganyushin       : Spin-Orbit,Spin-Spin,Magnetic field MRCI
   Yang Guo               : DLPNO-NEVPT2, CIM, IAO-localization
   Andreas Hansen         : Spin unrestricted coupled pair/coupled cluster methods
   Lee Huntington         : MR-EOM, pCC
   Robert Izsak           : Overlap fitted RIJCOSX, COSX-SCS-MP3, EOM
   Christian Kollmar      : KDIIS, OOCD, Brueckner-CCSD(T), CCSD density
   Simone Kossmann        : Meta GGA functionals, TD-DFT gradient, OOMP2, MP2 Hessian
   Martin Krupicka        : AUTO-CI
   Dagmar Lenk            : GEPOL surface
   Dimitrios Liakos       : Extrapolation schemes; parallel MDCI
   Dimitrios Manganas     : ROCIS; embedding schemes
   Dimitrios Pantazis     : SARC Basis sets
   Taras Petrenko         : DFT Hessian,TD-DFT gradient, ASA, ECA, R-Raman, ABS, FL, XAS/XES, NRVS
   Peter Pinski           : DLPNO-MP2
   Christoph Reimann      : Effective Core Potentials
   Marius Retegan         : Local ZFS, SOC
   Christoph Riplinger    : Optimizer, TS searches, QM/MM, DLPNO-CCSD(T), (RO)-DLPNO pert. Triples
   Tobias Risthaus        : Range-separated hybrids, TD-DFT gradient, RPA, STAB
   Michael Roemelt        : Restricted open shell CIS
   Masaaki Saitow         : Open-shell DLPNO
   Barbara Sandhoefer     : DKH picture change effects
   Kantharuban Sivalingam : CASSCF convergence, NEVPT2, FIC-MRCI
   Georgi Stoychev        : AutoAux
   Boris Wezisla          : Elementary symmetry handling
   Frank Wennmohs         : Technical directorship


 We gratefully acknowledge several colleagues who have allowed us to
 interface, adapt or use parts of their codes:
   Stefan Grimme, W. Hujo, H. Kruse,             : VdW corrections, initial TS optimization,
                  C. Bannwarth                     DFT functionals, gCP, sTDA/sTD-DF
   Ed Valeev                                     : LibInt (2-el integral package), F12 methods
   Garnet Chan, S. Sharma, J. Yang, R. Olivares  : DMRG
   Ulf Ekstrom                                   : XCFun DFT Library
   Mihaly Kallay                                 : mrcc  (arbitrary order and MRCC methods)
   Jiri Pittner, Ondrej Demel                    : Mk-CCSD
   Frank Weinhold                                : gennbo (NPA and NBO analysis)
   Christopher J. Cramer and Donald G. Truhlar   : smd solvation model


 Your calculation uses the libint2 library for the computation of 2-el integrals
 For citations please refer to: http://libint.valeyev.net

 This ORCA versions uses:
   CBLAS   interface :  Fast vector & matrix operations
   LAPACKE interface :  Fast linear algebra routines
   SCALAPACK package :  Parallel linear algebra routines




*****************************************
The coordinations will be read from file: guess.xyz
*****************************************



Information: The global flag for chemical shieldings has been found
             ==>> will calculate the chemical shifts for all atoms in the system

Your calculation utilizes the basis: cc-pVDZ 
       H, B-Ne : Obtained from the ccRepo (grant-hill.group.shef.ac.uk/ccrepo) Feb. 2017
                 T. H. Dunning, Jr., J. Chem. Phys. 90, 1007 (1989)
            He : Obtained from the ccRepo (grant-hill.group.shef.ac.uk/ccrepo) Feb. 2017
                 D. E. Woon, T. H. Dunning, Jr., J. Chem. Phys. 100, 2975 (1994)
  Li-Be, Na-Mg : Obtained from the ccRepo (grant-hill.group.shef.ac.uk/ccrepo) Feb. 2017
                 B. P. Prascher, D. E. Woon, K. A. Peterson, T. H. Dunning, Jr., A. K. Wilson, Theor. Chem. Acc. 128, 69 (2011)
         Al-Ar : Obtained from the ccRepo (grant-hill.group.shef.ac.uk/ccrepo) Feb. 2017
                 D. E. Woon, T. H. Dunning, Jr., J. Chem. Phys. 98, 1358 (1993)
            Ca : Obtained from the Peterson Research Group Website (tyr0.chem.wsu.edu/~kipeters) Feb. 2017
                 J. Koput, K. A. Peterson, J. Phys. Chem. 106, 9595 (2002)
         Sc-Zn : Obtained from the ccRepo (grant-hill.group.shef.ac.uk/ccrepo) Feb. 2017
                 N. B. Balabanov, K. A. Peterson, J. Chem. Phys. 123, 064107 (2005)
                 N. B. Balabanov, K. A. Peterson, J. Chem. Phys. 125, 074110 (2006)
         Ga-Kr : Obtained from the ccRepo (grant-hill.group.shef.ac.uk/ccrepo) Feb. 2017
                 A. K. Wilson, D. E. Woon, K. A. Peterson, T. H. Dunning, Jr., J. Chem. Phys. 110, 7667 (1999)

Your calculation utilizes the auxiliary basis: def2/J
   F. Weigend, Phys. Chem. Chem. Phys. 8, 1057 (2006).

================================================================================
                                        WARNINGS
                       Please study these warnings very carefully!
================================================================================

Warning: TCutStore was < 0. Adjusted to Thresh (uncritical)

INFO   : the flag for use of LIBINT has been found!

CheckInput: checking for shifts: .
================================================================================
                                       INPUT FILE
================================================================================
NAME = /home/jan/SoftwareDevelopment/karminus/output/bp86_ccpvdz/phenol/phenol.in
|  1> !cc-pvdz BP86 NMR
|  2> 
|  3> *xyzfile 0 1 guess.xyz
|  4> 
|  5> 
|  6>                          ****END OF INPUT****
================================================================================

                       ****************************
                       * Single Point Calculation *
                       ****************************

---------------------------------
CARTESIAN COORDINATES (ANGSTROEM)
---------------------------------
  C    -17.001970    1.946380    9.168510
  C    -15.925600    1.365760    8.498080
  C    -14.847460    2.155220    8.096290
  C    -14.845940    3.525080    8.365000
  C    -15.922310    4.108200    9.035930
  C    -16.992830    3.311490    9.432360
  O    -18.064920    3.838570   10.090050
  H    -17.918700    4.791890   10.202050
  H    -17.844170    1.337460    9.483920
  H    -14.004770    4.137540    8.050830
  H    -15.907800    5.174160    9.238150
  H    -15.928280    0.299300    8.289650
  H    -14.008600    1.702600    7.573760

----------------------------
CARTESIAN COORDINATES (A.U.)
----------------------------
  NO LB      ZA    FRAG     MASS         X           Y           Z
   0 C     6.0000    0    12.011  -32.129067    3.678125   17.325973
   1 C     6.0000    0    12.011  -30.095023    2.580912   16.059044
   2 C     6.0000    0    12.011  -28.057633    4.072776   15.299771
   3 C     6.0000    0    12.011  -28.054761    6.661436   15.807559
   4 C     6.0000    0    12.011  -30.088805    7.763373   17.075433
   5 C     6.0000    0    12.011  -32.111795    6.257809   17.824577
   6 O     8.0000    0    15.999  -34.137751    7.253846   19.067431
   7 H     1.0000    0     1.008  -33.861436    9.055360   19.279081
   8 H     1.0000    0     1.008  -33.720594    2.527433   17.922011
   9 H     1.0000    0     1.008  -26.465180    7.818817   15.213864
  10 H     1.0000    0     1.008  -30.061385    9.777745   17.457573
  11 H     1.0000    0     1.008  -30.100087    0.565595   15.665168
  12 H     1.0000    0     1.008  -26.472418    3.217448   14.312332

--------------------------------
INTERNAL COORDINATES (ANGSTROEM)
--------------------------------
 C      0   0   0     0.000000000000     0.00000000     0.00000000
 C      1   0   0     1.394692921829     0.00000000     0.00000000
 C      2   1   0     1.395373840696   119.94610938     0.00000000
 C      3   2   1     1.395966974574   120.03993538     0.00000000
 C      4   3   2     1.395975779231   120.10442520     0.00000000
 C      1   2   3     1.390404859816   119.66183211     0.00000000
 O      6   1   2     1.363725203478   117.76328470   180.00021333
 H      7   6   1     0.970949695298   108.46488606   179.99996379
 H      1   2   3     1.086079129023   120.30860329   180.00096492
 H      4   3   2     1.086911684269   119.87781081   180.00036139
 H      5   4   3     1.085068749020   119.31552067   179.99949966
 H      2   1   3     1.086640317170   119.92565299   179.99976318
 H      3   2   1     1.087008999457   119.94063161   180.00067175

---------------------------
INTERNAL COORDINATES (A.U.)
---------------------------
 C      0   0   0     0.000000000000     0.00000000     0.00000000
 C      1   0   0     2.635587663175     0.00000000     0.00000000
 C      2   1   0     2.636874413354   119.94610938     0.00000000
 C      3   2   1     2.637995273943   120.03993538     0.00000000
 C      4   3   2     2.638011912334   120.10442520     0.00000000
 C      1   2   3     2.627484400325   119.66183211     0.00000000
 O      6   1   2     2.577067156499   117.76328470   180.00021333
 H      7   6   1     1.834829013928   108.46488606   179.99996379
 H      1   2   3     2.052392113622   120.30860329   180.00096492
 H      4   3   2     2.053965415027   119.87781081   180.00036139
 H      5   4   3     2.050482772124   119.31552067   179.99949966
 H      2   1   3     2.053452605529   119.92565299   179.99976318
 H      3   2   1     2.054149314081   119.94063161   180.00067175

---------------------
BASIS SET INFORMATION
---------------------
There are 3 groups of distinct atoms

 Group   1 Type C   : 17s4p1d contracted to 3s2p1d pattern {881/31/1}
 Group   2 Type O   : 17s4p1d contracted to 3s2p1d pattern {881/31/1}
 Group   3 Type H   : 4s1p contracted to 2s1p pattern {31/1}

Atom   0C    basis set group =>   1
Atom   1C    basis set group =>   1
Atom   2C    basis set group =>   1
Atom   3C    basis set group =>   1
Atom   4C    basis set group =>   1
Atom   5C    basis set group =>   1
Atom   6O    basis set group =>   2
Atom   7H    basis set group =>   3
Atom   8H    basis set group =>   3
Atom   9H    basis set group =>   3
Atom  10H    basis set group =>   3
Atom  11H    basis set group =>   3
Atom  12H    basis set group =>   3
-------------------------------
AUXILIARY BASIS SET INFORMATION
-------------------------------
There are 3 groups of distinct atoms

 Group   1 Type C   : 12s5p4d2f1g contracted to 6s4p3d1f1g pattern {711111/2111/211/2/1}
 Group   2 Type O   : 12s5p4d2f1g contracted to 6s4p3d1f1g pattern {711111/2111/211/2/1}
 Group   3 Type H   : 5s2p1d contracted to 3s1p1d pattern {311/2/1}

Atom   0C    basis set group =>   1
Atom   1C    basis set group =>   1
Atom   2C    basis set group =>   1
Atom   3C    basis set group =>   1
Atom   4C    basis set group =>   1
Atom   5C    basis set group =>   1
Atom   6O    basis set group =>   2
Atom   7H    basis set group =>   3
Atom   8H    basis set group =>   3
Atom   9H    basis set group =>   3
Atom  10H    basis set group =>   3
Atom  11H    basis set group =>   3
Atom  12H    basis set group =>   3
------------------------------------------------------------------------------
                           ORCA GTO INTEGRAL CALCULATION
                           -- RI-GTO INTEGRALS CHOSEN --
------------------------------------------------------------------------------

                         BASIS SET STATISTICS AND STARTUP INFO

Gaussian basis set:
 # of primitive gaussian shells          ...  184
 # of primitive gaussian functions       ...  280
 # of contracted shells                  ...   60
 # of contracted basis functions         ...  128
 Highest angular momentum                ...    2
 Maximum contraction depth               ...    8
Auxiliary gaussian basis set:
 # of primitive gaussian shells          ...  216
 # of primitive gaussian functions       ...  586
 # of contracted shells                  ...  135
 # of contracted aux-basis functions     ...  409
 Highest angular momentum                ...    4
 Maximum contraction depth               ...    7
Ratio of auxiliary to basis functions    ...  3.20
Integral package used                  ... LIBINT
 One Electron integrals                  ... done
 Ordering auxiliary basis shells         ... done
 Integral threshhold             Thresh  ...  1.000e-10
 Primitive cut-off               TCut    ...  1.000e-11
 Pre-screening matrix                    ... done
 Shell pair data                         ... 
 Ordering of the shell pairs             ... done (   0.000 sec) 1807 of 1830 pairs
 Determination of significant pairs      ... done (   0.000 sec)
 Creation of shell pair data             ... done (   0.002 sec)
 Storage of shell pair data              ... done (   0.001 sec)
 Shell pair data done in (   0.003 sec)
 Computing two index integrals           ... done
 Cholesky decomposition of the V-matrix  ... done


Timings:
 Total evaluation time                   ...   0.217 sec (  0.004 min)
 One electron matrix time                ...   0.017 sec (  0.000 min) =  8.0%
 Schwartz matrix evaluation time         ...   0.172 sec (  0.003 min) = 79.3%
 Two index repulsion integral time       ...   0.004 sec (  0.000 min) =  1.6%
 Cholesky decomposition of V             ...   0.002 sec (  0.000 min) =  0.9%
 Three index repulsion integral time     ...   0.000 sec (  0.000 min) =  0.0%

-------------------------------------------------------------------------------
                                 ORCA SCF
-------------------------------------------------------------------------------

------------
SCF SETTINGS
------------
Hamiltonian:
 Density Functional     Method          .... DFT(GTOs)
 Exchange Functional    Exchange        .... B88
   X-Alpha parameter    XAlpha          ....  0.666667
   Becke's b parameter  XBeta           ....  0.004200
 Correlation Functional Correlation     .... P86
 LDA part of GGA corr.  LDAOpt          .... PW91-LDA
 Gradients option       PostSCFGGA      .... off
 RI-approximation to the Coulomb term is turned on
   Number of auxiliary basis functions  .... 409


General Settings:
 Integral files         IntName         .... /home/jan/SoftwareDevelopment/karminus/output/bp86_ccpvdz/phenol/phenol
 Hartree-Fock type      HFTyp           .... RHF
 Total Charge           Charge          ....    0
 Multiplicity           Mult            ....    1
 Number of Electrons    NEL             ....   50
 Basis Dimension        Dim             ....  128
 Nuclear Repulsion      ENuc            ....    271.3864729240 Eh

Convergence Acceleration:
 DIIS                   CNVDIIS         .... on
   Start iteration      DIISMaxIt       ....    12
   Startup error        DIISStart       ....  0.200000
   # of expansion vecs  DIISMaxEq       ....     5
   Bias factor          DIISBfac        ....   1.050
   Max. coefficient     DIISMaxC        ....  10.000
 Newton-Raphson         CNVNR           .... off
 SOSCF                  CNVSOSCF        .... on
   Start iteration      SOSCFMaxIt      ....   150
   Startup grad/error   SOSCFStart      ....  0.003300
 Level Shifting         CNVShift        .... on
   Level shift para.    LevelShift      ....    0.2500
   Turn off err/grad.   ShiftErr        ....    0.0010
 Zerner damping         CNVZerner       .... off
 Static damping         CNVDamp         .... on
   Fraction old density DampFac         ....    0.7000
   Max. Damping (<1)    DampMax         ....    0.9800
   Min. Damping (>=0)   DampMin         ....    0.0000
   Turn off err/grad.   DampErr         ....    0.1000
 Fernandez-Rico         CNVRico         .... off

SCF Procedure:
 Maximum # iterations   MaxIter         ....   125
 SCF integral mode      SCFMode         .... Direct
   Integral package                     .... LIBINT
 Reset frequeny         DirectResetFreq ....    20
 Integral Threshold     Thresh          ....  1.000e-10 Eh
 Primitive CutOff       TCut            ....  1.000e-11 Eh

Convergence Tolerance:
 Convergence Check Mode ConvCheckMode   .... Total+1el-Energy
 Convergence forced     ConvForced      .... 0
 Energy Change          TolE            ....  1.000e-06 Eh
 1-El. energy change                    ....  1.000e-03 Eh
 Orbital Gradient       TolG            ....  5.000e-05
 Orbital Rotation angle TolX            ....  5.000e-05
 DIIS Error             TolErr          ....  1.000e-06


Diagonalization of the overlap matrix:
Smallest eigenvalue                        ... 3.761e-04
Time for diagonalization                   ...    0.002 sec
Threshold for overlap eigenvalues          ... 1.000e-08
Number of eigenvalues below threshold      ... 0
Time for construction of square roots      ...    0.000 sec
Total time needed                          ...    0.003 sec

-------------------
DFT GRID GENERATION
-------------------

General Integration Accuracy     IntAcc      ...  4.340
Radial Grid Type                 RadialGrid  ... Gauss-Chebyshev
Angular Grid (max. acc.)         AngularGrid ... Lebedev-110
Angular grid pruning method      GridPruning ... 3 (G Style)
Weight generation scheme         WeightScheme... Becke
Basis function cutoff            BFCut       ...    1.0000e-10
Integration weight cutoff        WCut        ...    1.0000e-14
Grids for H and He will be reduced by one unit

# of grid points (after initial pruning)     ...  16416 (   0.0 sec)
# of grid points (after weights+screening)   ...  15430 (   0.0 sec)
nearest neighbour list constructed           ...    0.0 sec
Grid point re-assignment to atoms done       ...    0.0 sec
Grid point division into batches done        ...    0.0 sec
Reduced shell lists constructed in    0.3 sec

Total number of grid points                  ...    15430
Total number of batches                      ...      247
Average number of points per batch           ...       62
Average number of grid points per atom       ...     1187
Average number of shells per batch           ...    48.16 (80.26%)
Average number of basis functions per batch  ...   101.59 (79.37%)
Average number of large shells per batch     ...    38.11 (79.14%)
Average number of large basis fcns per batch ...    80.80 (79.53%)
Maximum spatial batch extension              ...  21.52, 20.18, 22.47 au
Average spatial batch extension              ...   4.37,  3.74,  4.67 au

Time for grid setup =    0.350 sec

------------------------------
INITIAL GUESS: MODEL POTENTIAL
------------------------------
Loading Hartree-Fock densities                     ... done
Calculating cut-offs                               ... done
Setting up the integral package                    ... done
Initializing the effective Hamiltonian             ... done
Starting the Coulomb interaction                   ... done (   0.2 sec)
Reading the grid                                   ... done
Mapping shells                                     ... done
Starting the XC term evaluation                    ... done (   0.4 sec)
  promolecular density results
     # of electrons  =     50.002820036
     EX              =    -40.831285927
     EC              =     -1.808375407
     EX+EC           =    -42.639661334
Transforming the Hamiltonian                       ... done (   0.0 sec)
Diagonalizing the Hamiltonian                      ... done (   0.0 sec)
Back transforming the eigenvectors                 ... done (   0.0 sec)
Now organizing SCF variables                       ... done
                      ------------------
                      INITIAL GUESS DONE (   1.1 sec)
                      ------------------
--------------
SCF ITERATIONS
--------------
ITER       Energy         Delta-E        Max-DP      RMS-DP      [F,P]     Damp
               ***  Starting incremental Fock matrix formation  ***
  0   -307.3352719046   0.000000000000 0.06141435  0.00242722  0.2106462 0.7000
  1   -307.4100006116  -0.074728707012 0.03528811  0.00171233  0.0913078 0.7000
                               ***Turning on DIIS***
  2   -307.4374853601  -0.027484748482 0.04535424  0.00261837  0.0243235 0.0000
  3   -307.4771241801  -0.039638819991 0.02237352  0.00115905  0.0505524 0.0000
  4   -307.4891624664  -0.012038286326 0.00750086  0.00036878  0.0124753 0.0000
  5   -307.4898596104  -0.000697143981 0.00324818  0.00013847  0.0056136 0.0000
                      *** Initiating the SOSCF procedure ***
                           *** Shutting down DIIS ***
                      *** Re-Reading the Fockian *** 
                      *** Removing any level shift *** 
ITER      Energy       Delta-E        Grad      Rot      Max-DP    RMS-DP
  6   -307.48993074  -0.0000711248  0.000299  0.000299  0.001268  0.000068
               *** Restarting incremental Fock matrix formation ***
  7   -307.48993246  -0.0000017262  0.000518  0.002938  0.001584  0.000063
  8   -307.48991933   0.0000131280  0.001357  0.002108  0.001154  0.000046
  9   -307.48993467  -0.0000153384  0.000049  0.000228  0.000306  0.000007
 10   -307.48993453   0.0000001406  0.000097  0.000159  0.000209  0.000005
                  ***Gradient check signals convergence***
              ***Rediagonalizing the Fockian in SOSCF/NRSCF***

               *****************************************************
               *                     SUCCESS                       *
               *           SCF CONVERGED AFTER  11 CYCLES          *
               *****************************************************

Setting up the final grid:

General Integration Accuracy     IntAcc      ...  4.670
Radial Grid Type                 RadialGrid  ... Gauss-Chebyshev
Angular Grid (max. acc.)         AngularGrid ... Lebedev-302
Angular grid pruning method      GridPruning ... 3 (G Style)
Weight generation scheme         WeightScheme... Becke
Basis function cutoff            BFCut       ...    1.0000e-10
Integration weight cutoff        WCut        ...    1.0000e-14
Grids for H and He will be reduced by one unit

# of grid points (after initial pruning)     ...  63848 (   0.0 sec)
# of grid points (after weights+screening)   ...  59153 (   0.1 sec)
nearest neighbour list constructed           ...    0.0 sec
Grid point re-assignment to atoms done       ...    0.0 sec
Grid point division into batches done        ...    0.2 sec
Reduced shell lists constructed in    1.4 sec

Total number of grid points                  ...    59153
Total number of batches                      ...      928
Average number of points per batch           ...       63
Average number of grid points per atom       ...     4550
Average number of shells per batch           ...    43.87 (73.12%)
Average number of basis functions per batch  ...    92.29 (72.11%)
Average number of large shells per batch     ...    33.89 (77.25%)
Average number of large basis fcns per batch ...    71.71 (77.69%)
Maximum spatial batch extension              ...  17.70, 19.44, 27.61 au
Average spatial batch extension              ...   2.75,  2.59,  3.00 au

Final grid set up in    1.5 sec
Final integration                            ... done (   1.3 sec)
Change in XC energy                          ...     0.000458683
Integrated number of electrons               ...    49.999978168
Previous integrated no of electrons          ...    50.003594658

----------------
TOTAL SCF ENERGY
----------------

Total Energy       :         -307.48947602 Eh           -8367.21402 eV

Components:
Nuclear Repulsion  :          271.38647292 Eh            7384.80136 eV
Electronic Energy  :         -578.87594894 Eh          -15752.01539 eV
One Electron Energy:         -953.18321339 Eh          -25937.43387 eV
Two Electron Energy:          374.30726444 Eh           10185.41848 eV

Virial components:
Potential Energy   :         -612.91266820 Eh          -16678.20161 eV
Kinetic Energy     :          305.42319218 Eh            8310.98758 eV
Virial Ratio       :            2.00676531


DFT components:
N(Alpha)           :       24.999989083875 electrons
N(Beta)            :       24.999989083875 electrons
N(Total)           :       49.999978167750 electrons
E(X)               :      -41.594019050633 Eh       
E(C)               :       -1.819725615730 Eh       
E(XC)              :      -43.413744666363 Eh       

---------------
SCF CONVERGENCE
---------------

  Last Energy change         ...   -1.7091e-07  Tolerance :   1.0000e-06
  Last MAX-Density change    ...    4.1606e-05  Tolerance :   1.0000e-05
  Last RMS-Density change    ...    1.4510e-06  Tolerance :   1.0000e-06
  Last Orbital Gradient      ...    8.0827e-06  Tolerance :   5.0000e-05
  Last Orbital Rotation      ...    2.9392e-05  Tolerance :   5.0000e-05

             **** THE GBW FILE WAS UPDATED (/home/jan/SoftwareDevelopment/karminus/output/bp86_ccpvdz/phenol/phenol.gbw) ****
             **** DENSITY FILE WAS UPDATED (/home/jan/SoftwareDevelopment/karminus/output/bp86_ccpvdz/phenol/phenol.scfp.tmp) ****
             **** ENERGY FILE WAS UPDATED (/home/jan/SoftwareDevelopment/karminus/output/bp86_ccpvdz/phenol/phenol.en.tmp) ****
----------------
ORBITAL ENERGIES
----------------

  NO   OCC          E(Eh)            E(eV) 
   0   2.0000     -18.815911      -512.0070 
   1   2.0000      -9.970102      -271.3003 
   2   2.0000      -9.916605      -269.8445 
   3   2.0000      -9.915129      -269.8044 
   4   2.0000      -9.913622      -269.7634 
   5   2.0000      -9.908674      -269.6287 
   6   2.0000      -9.906623      -269.5729 
   7   2.0000      -0.976905       -26.5829 
   8   2.0000      -0.775861       -21.1122 
   9   2.0000      -0.680536       -18.5183 
  10   2.0000      -0.669342       -18.2137 
  11   2.0000      -0.566381       -15.4120 
  12   2.0000      -0.543360       -14.7856 
  13   2.0000      -0.492907       -13.4127 
  14   2.0000      -0.445752       -12.1295 
  15   2.0000      -0.416200       -11.3254 
  16   2.0000      -0.390620       -10.6293 
  17   2.0000      -0.377084       -10.2610 
  18   2.0000      -0.363709        -9.8970 
  19   2.0000      -0.339124        -9.2280 
  20   2.0000      -0.314803        -8.5662 
  21   2.0000      -0.296798        -8.0763 
  22   2.0000      -0.295428        -8.0390 
  23   2.0000      -0.228598        -6.2205 
  24   2.0000      -0.196123        -5.3368 
  25   0.0000      -0.037813        -1.0289 
  26   0.0000      -0.019807        -0.5390 
  27   0.0000       0.027891         0.7589 
  28   0.0000       0.045331         1.2335 
  29   0.0000       0.085396         2.3237 
  30   0.0000       0.096364         2.6222 
  31   0.0000       0.116061         3.1582 
  32   0.0000       0.125825         3.4239 
  33   0.0000       0.134294         3.6543 
  34   0.0000       0.189785         5.1643 
  35   0.0000       0.236827         6.4444 
  36   0.0000       0.249425         6.7872 
  37   0.0000       0.280375         7.6294 
  38   0.0000       0.290412         7.9025 
  39   0.0000       0.379883        10.3371 
  40   0.0000       0.393086        10.6964 
  41   0.0000       0.421043        11.4572 
  42   0.0000       0.422892        11.5075 
  43   0.0000       0.460717        12.5367 
  44   0.0000       0.467727        12.7275 
  45   0.0000       0.471707        12.8358 
  46   0.0000       0.474372        12.9083 
  47   0.0000       0.476991        12.9796 
  48   0.0000       0.486372        13.2348 
  49   0.0000       0.492056        13.3895 
  50   0.0000       0.515457        14.0263 
  51   0.0000       0.548770        14.9328 
  52   0.0000       0.556323        15.1383 
  53   0.0000       0.558641        15.2014 
  54   0.0000       0.602963        16.4075 
  55   0.0000       0.608316        16.5531 
  56   0.0000       0.633740        17.2449 
  57   0.0000       0.634185        17.2571 
  58   0.0000       0.655698        17.8424 
  59   0.0000       0.703740        19.1497 
  60   0.0000       0.755438        20.5565 
  61   0.0000       0.779222        21.2037 
  62   0.0000       0.813359        22.1326 
  63   0.0000       0.838877        22.8270 
  64   0.0000       0.860145        23.4057 
  65   0.0000       0.862983        23.4830 
  66   0.0000       0.929544        25.2942 
  67   0.0000       0.938750        25.5447 
  68   0.0000       0.945474        25.7276 
  69   0.0000       0.949066        25.8254 
  70   0.0000       0.976474        26.5712 
  71   0.0000       0.977561        26.6008 
  72   0.0000       0.998331        27.1660 
  73   0.0000       1.003309        27.3014 
  74   0.0000       1.059930        28.8422 
  75   0.0000       1.064183        28.9579 
  76   0.0000       1.089565        29.6486 
  77   0.0000       1.189333        32.3634 
  78   0.0000       1.205639        32.8071 
  79   0.0000       1.249107        33.9899 
  80   0.0000       1.289433        35.0872 
  81   0.0000       1.407511        38.3003 
  82   0.0000       1.410303        38.3763 
  83   0.0000       1.425700        38.7953 
  84   0.0000       1.469586        39.9895 
  85   0.0000       1.472846        40.0782 
  86   0.0000       1.527385        41.5623 
  87   0.0000       1.537620        41.8408 
  88   0.0000       1.548106        42.1261 
  89   0.0000       1.568832        42.6901 
  90   0.0000       1.577121        42.9157 
  91   0.0000       1.586005        43.1574 
  92   0.0000       1.613551        43.9070 
  93   0.0000       1.633068        44.4380 
  94   0.0000       1.669008        45.4160 
  95   0.0000       1.694293        46.1041 
  96   0.0000       1.697670        46.1960 
  97   0.0000       1.720071        46.8055 
  98   0.0000       1.754881        47.7527 
  99   0.0000       1.778663        48.3999 
 100   0.0000       1.785053        48.5738 
 101   0.0000       1.785364        48.5822 
 102   0.0000       1.812376        49.3173 
 103   0.0000       1.855565        50.4925 
 104   0.0000       1.907187        51.8972 
 105   0.0000       1.928776        52.4847 
 106   0.0000       1.932803        52.5942 
 107   0.0000       1.991351        54.1874 
 108   0.0000       2.030635        55.2564 
 109   0.0000       2.108231        57.3679 
 110   0.0000       2.125837        57.8470 
 111   0.0000       2.126432        57.8631 
 112   0.0000       2.218940        60.3804 
 113   0.0000       2.315884        63.0184 
 114   0.0000       2.352825        64.0236 
 115   0.0000       2.359212        64.1974 
 116   0.0000       2.415747        65.7358 
 117   0.0000       2.540646        69.1345 
 118   0.0000       2.593739        70.5792 
 119   0.0000       2.660952        72.4082 
 120   0.0000       2.733713        74.3881 
 121   0.0000       2.790859        75.9431 
 122   0.0000       2.814237        76.5793 
 123   0.0000       2.852649        77.6245 
 124   0.0000       3.102916        84.4346 
 125   0.0000       3.228828        87.8609 
 126   0.0000       3.497985        95.1850 
 127   0.0000       3.688416       100.3669 

                    ********************************
                    * MULLIKEN POPULATION ANALYSIS *
                    ********************************

-----------------------
MULLIKEN ATOMIC CHARGES
-----------------------
   0 C :    0.026133
   1 C :    0.032792
   2 C :    0.004183
   3 C :    0.024746
   4 C :   -0.011906
   5 C :    0.035260
   6 O :   -0.156460
   7 H :    0.145531
   8 H :   -0.014700
   9 H :   -0.019522
  10 H :   -0.024012
  11 H :   -0.016704
  12 H :   -0.025342
Sum of atomic charges:   -0.0000000

--------------------------------
MULLIKEN REDUCED ORBITAL CHARGES
--------------------------------
  0 C s       :     3.097834  s :     3.097834
      pz      :     0.999843  p :     2.817936
      px      :     0.888567
      py      :     0.929526
      dz2     :     0.006633  d :     0.058097
      dxz     :     0.006136
      dyz     :     0.011860
      dx2y2   :     0.016469
      dxy     :     0.016999
  1 C s       :     3.117676  s :     3.117676
      pz      :     0.964505  p :     2.785028
      px      :     0.968752
      py      :     0.851771
      dz2     :     0.008819  d :     0.064504
      dxz     :     0.011490
      dyz     :     0.007148
      dx2y2   :     0.022774
      dxy     :     0.014273
  2 C s       :     3.109766  s :     3.109766
      pz      :     0.973389  p :     2.823537
      px      :     0.900494
      py      :     0.949654
      dz2     :     0.004745  d :     0.062515
      dxz     :     0.007500
      dyz     :     0.012363
      dx2y2   :     0.017888
      dxy     :     0.020019
  3 C s       :     3.116471  s :     3.116471
      pz      :     0.960027  p :     2.794326
      px      :     0.899319
      py      :     0.934980
      dz2     :     0.007803  d :     0.064457
      dxz     :     0.006189
      dyz     :     0.013354
      dx2y2   :     0.015123
      dxy     :     0.021988
  4 C s       :     3.083008  s :     3.083008
      pz      :     1.041336  p :     2.870490
      px      :     0.987108
      py      :     0.842045
      dz2     :     0.007635  d :     0.058407
      dxz     :     0.009696
      dyz     :     0.007480
      dx2y2   :     0.019977
      dxy     :     0.013619
  5 C s       :     3.115679  s :     3.115679
      pz      :     0.905585  p :     2.709186
      px      :     0.819537
      py      :     0.984063
      dz2     :     0.019654  d :     0.139875
      dxz     :     0.024572
      dyz     :     0.022053
      dx2y2   :     0.036850
      dxy     :     0.036747
  6 O s       :     3.688321  s :     3.688321
      pz      :     1.687691  p :     4.454171
      px      :     1.549550
      py      :     1.216931
      dz2     :     0.002417  d :     0.013967
      dxz     :     0.003355
      dyz     :     0.000793
      dx2y2   :     0.004933
      dxy     :     0.002469
  7 H s       :     0.774151  s :     0.774151
      pz      :     0.020878  p :     0.080317
      px      :     0.018035
      py      :     0.041404
  8 H s       :     0.986065  s :     0.986065
      pz      :     0.007404  p :     0.028635
      px      :     0.012629
      py      :     0.008602
  9 H s       :     0.991458  s :     0.991458
      pz      :     0.007132  p :     0.028063
      px      :     0.012332
      py      :     0.008599
 10 H s       :     0.995090  s :     0.995090
      pz      :     0.007145  p :     0.028922
      px      :     0.005338
      py      :     0.016439
 11 H s       :     0.988721  s :     0.988721
      pz      :     0.006460  p :     0.027984
      px      :     0.005066
      py      :     0.016458
 12 H s       :     0.997149  s :     0.997149
      pz      :     0.009217  p :     0.028193
      px      :     0.012234
      py      :     0.006742


                     *******************************
                     * LOEWDIN POPULATION ANALYSIS *
                     *******************************

----------------------
LOEWDIN ATOMIC CHARGES
----------------------
   0 C :   -0.046835
   1 C :   -0.022930
   2 C :   -0.052960
   3 C :   -0.024182
   4 C :   -0.075045
   5 C :   -0.063780
   6 O :    0.083897
   7 H :    0.060393
   8 H :    0.030942
   9 H :    0.029584
  10 H :    0.023568
  11 H :    0.030911
  12 H :    0.026438

-------------------------------
LOEWDIN REDUCED ORBITAL CHARGES
-------------------------------
  0 C s       :     2.814785  s :     2.814785
      pz      :     0.999221  p :     3.042193
      px      :     1.018826
      py      :     1.024147
      dz2     :     0.020057  d :     0.189857
      dxz     :     0.020790
      dyz     :     0.034594
      dx2y2   :     0.055977
      dxy     :     0.058438
  1 C s       :     2.817070  s :     2.817070
      pz      :     0.960157  p :     3.003323
      px      :     1.028808
      py      :     1.014358
      dz2     :     0.025336  d :     0.202537
      dxz     :     0.036878
      dyz     :     0.020715
      dx2y2   :     0.070394
      dxy     :     0.049214
  2 C s       :     2.814622  s :     2.814622
      pz      :     0.987032  p :     3.040681
      px      :     1.013517
      py      :     1.040133
      dz2     :     0.014534  d :     0.197657
      dxz     :     0.023256
      dyz     :     0.035887
      dx2y2   :     0.059446
      dxy     :     0.064534
  3 C s       :     2.817092  s :     2.817092
      pz      :     0.960168  p :     3.004656
      px      :     1.004007
      py      :     1.040480
      dz2     :     0.022745  d :     0.202434
      dxz     :     0.021159
      dyz     :     0.038580
      dx2y2   :     0.051584
      dxy     :     0.068366
  4 C s       :     2.816129  s :     2.816129
      pz      :     1.020464  p :     3.065839
      px      :     1.038386
      py      :     1.006989
      dz2     :     0.022619  d :     0.193076
      dxz     :     0.033836
      dyz     :     0.021547
      dx2y2   :     0.065359
      dxy     :     0.049716
  5 C s       :     2.806762  s :     2.806762
      pz      :     0.921813  p :     2.895395
      px      :     0.926259
      py      :     1.047323
      dz2     :     0.049290  d :     0.361623
      dxz     :     0.062779
      dyz     :     0.054354
      dx2y2   :     0.099332
      dxy     :     0.095869
  6 O s       :     3.372003  s :     3.372003
      pz      :     1.652261  p :     4.516260
      px      :     1.553533
      py      :     1.310466
      dz2     :     0.004499  d :     0.027841
      dxz     :     0.005443
      dyz     :     0.001684
      dx2y2   :     0.011343
      dxy     :     0.004872
  7 H s       :     0.742980  s :     0.742980
      pz      :     0.051220  p :     0.196627
      px      :     0.045738
      py      :     0.099669
  8 H s       :     0.885581  s :     0.885581
      pz      :     0.021541  p :     0.083477
      px      :     0.036191
      py      :     0.025745
  9 H s       :     0.889221  s :     0.889221
      pz      :     0.020158  p :     0.081196
      px      :     0.035228
      py      :     0.025810
 10 H s       :     0.892363  s :     0.892363
      pz      :     0.020884  p :     0.084070
      px      :     0.016940
      py      :     0.046245
 11 H s       :     0.887992  s :     0.887992
      pz      :     0.018542  p :     0.081097
      px      :     0.016068
      py      :     0.046487
 12 H s       :     0.891466  s :     0.891466
      pz      :     0.025902  p :     0.082096
      px      :     0.035128
      py      :     0.021066


                      *****************************
                      * MAYER POPULATION ANALYSIS *
                      *****************************

  NA   - Mulliken gross atomic population
  ZA   - Total nuclear charge
  QA   - Mulliken gross atomic charge
  VA   - Mayer's total valence
  BVA  - Mayer's bonded valence
  FA   - Mayer's free valence

  ATOM       NA         ZA         QA         VA         BVA        FA
  0 C      5.9739     6.0000     0.0261     3.9729     3.9729    -0.0000
  1 C      5.9672     6.0000     0.0328     4.0337     4.0337    -0.0000
  2 C      5.9958     6.0000     0.0042     4.0079     4.0079     0.0000
  3 C      5.9753     6.0000     0.0247     4.0464     4.0464    -0.0000
  4 C      6.0119     6.0000    -0.0119     3.9180     3.9180    -0.0000
  5 C      5.9647     6.0000     0.0353     4.1830     4.1830     0.0000
  6 O      8.1565     8.0000    -0.1565     2.3597     2.3597     0.0000
  7 H      0.8545     1.0000     0.1455     1.0448     1.0448     0.0000
  8 H      1.0147     1.0000    -0.0147     0.9850     0.9850    -0.0000
  9 H      1.0195     1.0000    -0.0195     0.9687     0.9687     0.0000
 10 H      1.0240     1.0000    -0.0240     0.9740     0.9740     0.0000
 11 H      1.0167     1.0000    -0.0167     0.9676     0.9676    -0.0000
 12 H      1.0253     1.0000    -0.0253     0.9685     0.9685    -0.0000

  Mayer bond orders larger than 0.1
B(  0-C ,  1-C ) :   1.4827 B(  0-C ,  5-C ) :   1.3953 B(  0-C ,  8-H ) :   0.9220 
B(  1-C ,  2-C ) :   1.4534 B(  1-C , 11-H ) :   0.9339 B(  2-C ,  3-C ) :   1.4661 
B(  2-C , 12-H ) :   0.9339 B(  3-C ,  4-C ) :   1.4665 B(  3-C ,  9-H ) :   0.9297 
B(  4-C ,  5-C ) :   1.3543 B(  4-C , 10-H ) :   0.9222 B(  5-C ,  6-O ) :   1.2283 
B(  6-O ,  7-H ) :   0.9951 

-------
TIMINGS
-------

Total SCF time: 0 days 0 hours 0 min 13 sec 

Total time                  ....      13.234 sec
Sum of individual times     ....      13.214 sec  ( 99.8%)

Fock matrix formation       ....      10.670 sec  ( 80.6%)
  Split-RI-J                ....       4.970 sec  ( 46.6% of F)
  XC integration            ....       5.692 sec  ( 53.3% of F)
    Basis function eval.    ....       3.716 sec  ( 65.3% of XC)
    Density eval.           ....       0.540 sec  (  9.5% of XC)
    XC-Functional eval.     ....       0.316 sec  (  5.6% of XC)
    XC-Potential eval.      ....       1.051 sec  ( 18.5% of XC)
Diagonalization             ....       0.017 sec  (  0.1%)
Density matrix formation    ....       0.002 sec  (  0.0%)
Population analysis         ....       0.004 sec  (  0.0%)
Initial guess               ....       0.708 sec  (  5.4%)
Orbital Transformation      ....       0.000 sec  (  0.0%)
Orbital Orthonormalization  ....       0.000 sec  (  0.0%)
DIIS solution               ....       0.005 sec  (  0.0%)
SOSCF solution              ....       0.006 sec  (  0.0%)
Grid generation             ....       1.802 sec  ( 13.6%)

-------------------------   --------------------
FINAL SINGLE POINT ENERGY      -307.489476018802
-------------------------   --------------------


                            ***************************************
                            *     ORCA property calculations      *
                            ***************************************

                                    ---------------------
                                    Active property flags
                                    ---------------------
   (+) Dipole Moment
   (+) Chemical Shifts


------------------------------------------------------------------------------
                       ORCA ELECTRIC PROPERTIES CALCULATION
------------------------------------------------------------------------------

Dipole Moment Calculation                       ... on
Quadrupole Moment Calculation                   ... off
Polarizability Calculation                      ... off
GBWName                                         ... /home/jan/SoftwareDevelopment/karminus/output/bp86_ccpvdz/phenol/phenol.gbw
Electron density file                           ... /home/jan/SoftwareDevelopment/karminus/output/bp86_ccpvdz/phenol/phenol.scfp.tmp

-------------
DIPOLE MOMENT
-------------
                                X             Y             Z
Electronic contribution:     -1.84030       0.63540       1.07814
Nuclear contribution   :      1.95678      -0.13738      -1.03816
                        -----------------------------------------
Total Dipole Moment    :      0.11647       0.49803       0.03997
                        -----------------------------------------
Magnitude (a.u.)       :      0.51303
Magnitude (Debye)      :      1.30401

------------------------------------------------------------------------------
                                ORCA EPR/NMR CALCULATION
------------------------------------------------------------------------------

GBWName                      ... /home/jan/SoftwareDevelopment/karminus/output/bp86_ccpvdz/phenol/phenol.gbw
Electron density file        ... /home/jan/SoftwareDevelopment/karminus/output/bp86_ccpvdz/phenol/phenol.scfp.tmp
Spin density file            ... /home/jan/SoftwareDevelopment/karminus/output/bp86_ccpvdz/phenol/phenol.scfr.tmp
Treatment of gauge           ... GIAO (approximations 1/2el = 0,3)
Details of the CP(SCF) procedure:
       Solver   = POPLE   
       MaxIter  =    64   
       Tolerance=    1.000e-06
       Op-0     =   0- 24 =>  25-127
Multiplicity                 ... 1
g-tensor                     ... 0
NMR chemical shifts          ... 1
Number of nuclei for epr/nmr ... 13
   Nucleus:   0C 
       Hyperfine : Isotope=   13 I=   0.500 P= 134.188
       Quadrupole: Isotope=   13 I=   0.500 Q=   0.000
       Spin-Orbit: Zeff=   3.600
       rho(0)=N f(grad)=N a(iso)=N a(dip)=N a(orb)=N sigma(nmr)=Y
   Nucleus:   1C 
       Hyperfine : Isotope=   13 I=   0.500 P= 134.188
       Quadrupole: Isotope=   13 I=   0.500 Q=   0.000
       Spin-Orbit: Zeff=   3.600
       rho(0)=N f(grad)=N a(iso)=N a(dip)=N a(orb)=N sigma(nmr)=Y
   Nucleus:   2C 
       Hyperfine : Isotope=   13 I=   0.500 P= 134.188
       Quadrupole: Isotope=   13 I=   0.500 Q=   0.000
       Spin-Orbit: Zeff=   3.600
       rho(0)=N f(grad)=N a(iso)=N a(dip)=N a(orb)=N sigma(nmr)=Y
   Nucleus:   3C 
       Hyperfine : Isotope=   13 I=   0.500 P= 134.188
       Quadrupole: Isotope=   13 I=   0.500 Q=   0.000
       Spin-Orbit: Zeff=   3.600
       rho(0)=N f(grad)=N a(iso)=N a(dip)=N a(orb)=N sigma(nmr)=Y
   Nucleus:   4C 
       Hyperfine : Isotope=   13 I=   0.500 P= 134.188
       Quadrupole: Isotope=   13 I=   0.500 Q=   0.000
       Spin-Orbit: Zeff=   3.600
       rho(0)=N f(grad)=N a(iso)=N a(dip)=N a(orb)=N sigma(nmr)=Y
   Nucleus:   5C 
       Hyperfine : Isotope=   13 I=   0.500 P= 134.188
       Quadrupole: Isotope=   13 I=   0.500 Q=   0.000
       Spin-Orbit: Zeff=   3.600
       rho(0)=N f(grad)=N a(iso)=N a(dip)=N a(orb)=N sigma(nmr)=Y
   Nucleus:   6O 
       Hyperfine : Isotope=   17 I=   2.500 P= -72.357
       Quadrupole: Isotope=   17 I=   2.500 Q=  -0.026
       Spin-Orbit: Zeff=   5.600
       rho(0)=N f(grad)=N a(iso)=N a(dip)=N a(orb)=N sigma(nmr)=Y
   Nucleus:   7H 
       Hyperfine : Isotope=    1 I=   0.500 P= 533.552
       Quadrupole: Isotope=    2 I=   1.000 Q=   0.003
       Spin-Orbit: Zeff=   1.000
       rho(0)=N f(grad)=N a(iso)=N a(dip)=N a(orb)=N sigma(nmr)=Y
   Nucleus:   8H 
       Hyperfine : Isotope=    1 I=   0.500 P= 533.552
       Quadrupole: Isotope=    2 I=   1.000 Q=   0.003
       Spin-Orbit: Zeff=   1.000
       rho(0)=N f(grad)=N a(iso)=N a(dip)=N a(orb)=N sigma(nmr)=Y
   Nucleus:   9H 
       Hyperfine : Isotope=    1 I=   0.500 P= 533.552
       Quadrupole: Isotope=    2 I=   1.000 Q=   0.003
       Spin-Orbit: Zeff=   1.000
       rho(0)=N f(grad)=N a(iso)=N a(dip)=N a(orb)=N sigma(nmr)=Y
   Nucleus:  10H 
       Hyperfine : Isotope=    1 I=   0.500 P= 533.552
       Quadrupole: Isotope=    2 I=   1.000 Q=   0.003
       Spin-Orbit: Zeff=   1.000
       rho(0)=N f(grad)=N a(iso)=N a(dip)=N a(orb)=N sigma(nmr)=Y
   Nucleus:  11H 
       Hyperfine : Isotope=    1 I=   0.500 P= 533.552
       Quadrupole: Isotope=    2 I=   1.000 Q=   0.003
       Spin-Orbit: Zeff=   1.000
       rho(0)=N f(grad)=N a(iso)=N a(dip)=N a(orb)=N sigma(nmr)=Y
   Nucleus:  12H 
       Hyperfine : Isotope=    1 I=   0.500 P= 533.552
       Quadrupole: Isotope=    2 I=   1.000 Q=   0.003
       Spin-Orbit: Zeff=   1.000
       rho(0)=N f(grad)=N a(iso)=N a(dip)=N a(orb)=N sigma(nmr)=Y
Using LibInt in CPSCF-CP

Forming RHS of the CP-SCF equations         ... 
Calculating right hand sides for GIAO treatment (new)  ... 
  Entering RightHandSide GIAO. ScalHFX=    0.0000 NeedHFX=0
     -> 1-electron GIAO integrals will be done analytically
     -> RI used in SCF and no Fock exchange. RIJK enforced by the user
     Making grid for GIAO integrations   ... done
     Test of existence of the V matrix   = 1
     Test of existence of the VCD matrix = 1
     Test of existence of the VO matrix  = 0
     Warning: RI is turned on for GIAO but the V matrix or its Cholesky decomposition are not found - making it
     Calculating V           ... done
     Cholesky decomposition  ... done
     Storing V and VCD       ... done
     Cholesky decomposition-2... done
     Storing VO              ... done
  Getting the pre-screening matrix        ... done
  Extracting occupied and virtual blocks  ... 
  Operator  0  NO=  25 NV= 103 
  One-electron GIAO integrals             ...   done
  Transforming and RHS contribution       ...   done
  Calculating F[B](P)                     ...  (RI-JK)
---------------------
RI-GIAO-TRANSFORMATION (AUX index driven)
----------------------

Dimension of the orbital-basis         ... 128
Dimension of the aux-basis             ... 409
Number of (i,a) MOs                    ... 25,103
Number of ij,ia,ab pairs               ... 625,2575,10609
Transformation of internal MOs         ...    0-  24
Transformation of internal/external MOs...    0-  24 to   25- 127

Mapping shells                                 ... done
Making shell addresses                         ... done
Figuring out significant basis function pairs  ... done
  N(Pairs)         ... 8256
  N(Strong pairs)  ... 8101
  Mem-Available    ... 1024 MB
  (p,q) per batch  ... 41014
  N(Batches)       ... 1
Preparing matrix containers                    ... done
Preparing AO buffer                            ... done
Calculating AO integrals and transforming AUX  ... done
Finished RI-GIAO integral generation and aux-index transformation in  4.136 sec
Mapping the MO pairs                            ... done
Getting memory                                  ... done
Second Phase: sorting and transformation of MO indices
Memory available                       ... 1024 MB 
Max. # Aux fcns treated in a batch     ... 409    
Initializing the MO transformation process      ... done
Batch   0: Q=   0 ...  408
   Reading      ... done
   Transforming ... done
Finished transformation of the MO indices in  1.059 sec
Initializing the sorting process                ... done

IJ-Resorting
# of internal pairs                    ... 625
# batches for internal pairs           ... 1
   (0) Reading      ... done
   (0) Writing      ... done
   (1) Reading      ... done
   (1) Writing      ... done
   (2) Reading      ... done
   (2) Writing      ... done
   (3) Reading      ... done
   (3) Writing      ... done
(ij|v) resorting done in     0.018 sec

IA-Resorting
# of internal orbitals                 ... 25
# batches for internal orbitals        ... 1
   (0) Reading      ... done
   (0) Writing      ... done
   (1) Reading      ... done
   (1) Writing      ... done
   (2) Reading      ... done
   (2) Writing      ... done
   (3) Reading      ... done
   (3) Writing      ... done
(ia|v) resorting done in     0.039 sec

  Resorting completed in     0.058 sec
RI-GIAO-Integral transformation completed in     5.299 sec
Reading RI-integrals ... done
Doing RI-JK          ... done
 => dG/dB done
  RI-JK GIAO contributions                ...   done
  DFT XC-terms                            ... done
  Transforming to MO basis/RHS contribs.  ... done
  GIAO profiling information: 
    Total GIAO time               ...      10.3 sec
       Grid setup                 ...       0.3 sec (  3.3%)
       RI-V-matrix setup          ...       0.0 sec (  0.4%)
       GIAO 1-electron integrals  ...       0.0 sec (  0.3%)
       GIAO RI-JK                 ...       3.4 sec ( 33.2%)
       GIAO RI integral trafo     ...       5.3 sec ( 51.6%)
       GIAO XC-terms              ...       1.1 sec ( 11.0%)

  GIAO right hand side done


Forming final perturbed densities           ... done
Transforming perturbed density to AO basis  ...  done

Magnetic field perturbation calculated in 10.340 sec

---------------
CHEMICAL SHIFTS
---------------

Note: using conversion factor for au to ppm alpha^2/2 =   26.625677252 
Doing GIAO para- and diamagnetic shielding integrals analytically     ...done
Doing remaining GIAO terms numerically                                ...done
 --------------
 Nucleus   0C :
 --------------

Diamagnetic contribution to the shielding tensor (ppm) : 
           246.035          2.625       -33.901
             5.891        262.195        13.209
           -34.756         12.847       199.948

Paramagnetic contribution to the shielding tensor (ppm): 
          -191.153        -39.254        88.630
           -40.466       -211.710       -19.682
            89.780        -18.244       -54.566

Total shielding tensor (ppm): 
            54.882        -36.629        54.729
           -34.575         50.485        -6.473
            55.024         -5.396       145.381


 Diagonalized sT*s matrix:
 
 sDSO           262.119          266.601          179.458  iso=     236.059
 sPSO          -254.787         -198.013           -4.629  iso=    -152.476
        ---------------  ---------------  ---------------
 Total            7.333           68.588          174.829  iso=      83.583

 --------------
 Nucleus   1C :
 --------------

Diamagnetic contribution to the shielding tensor (ppm) : 
           268.373         -2.380        10.212
            -1.219        262.319        -4.647
             7.986         -3.789       284.240

Paramagnetic contribution to the shielding tensor (ppm): 
          -189.439         -9.441        38.603
            -8.035       -286.923       -30.240
            41.095        -29.933      -138.084

Total shielding tensor (ppm): 
            78.934        -11.821        48.815
            -9.255        -24.604       -34.887
            49.081        -33.721       146.156


 Diagonalized sT*s matrix:
 
 sDSO           261.536          264.293          289.103  iso=     271.644
 sPSO          -292.453         -210.957         -111.035  iso=    -204.815
        ---------------  ---------------  ---------------
 Total          -30.918           53.335          178.068  iso=      66.829

 --------------
 Nucleus   2C :
 --------------

Diamagnetic contribution to the shielding tensor (ppm) : 
           284.375         -7.377        32.650
            -7.750        266.956       -12.427
            39.657        -14.194       327.120

Paramagnetic contribution to the shielding tensor (ppm): 
          -244.348         24.302        44.397
            24.834       -211.655       -21.452
            37.455        -19.917      -191.094

Total shielding tensor (ppm): 
            40.027         16.926        77.048
            17.084         55.300       -33.879
            77.111        -34.112       136.027


 Diagonalized sT*s matrix:
 
 sDSO           263.932          264.114          350.405  iso=     292.817
 sPSO          -280.804         -198.495         -167.798  iso=    -215.699
        ---------------  ---------------  ---------------
 Total          -16.872           65.619          182.607  iso=      77.118

 --------------
 Nucleus   3C :
 --------------

Diamagnetic contribution to the shielding tensor (ppm) : 
           277.867         -6.733        30.605
            -7.704        265.274       -10.650
            28.972        -10.003       322.766

Paramagnetic contribution to the shielding tensor (ppm): 
          -248.947        -38.254        36.888
           -40.038       -233.455         6.999
            37.735          5.022      -181.468

Total shielding tensor (ppm): 
            28.919        -44.988        67.493
           -47.742         31.819        -3.651
            66.707         -4.981       141.298


 Diagonalized sT*s matrix:
 
 sDSO           261.305          264.904          339.698  iso=     288.635
 sPSO          -290.804         -210.070         -162.996  iso=    -221.290
        ---------------  ---------------  ---------------
 Total          -29.499           54.834          176.702  iso=      67.345

 --------------
 Nucleus   4C :
 --------------

Diamagnetic contribution to the shielding tensor (ppm) : 
           259.187          2.239       -18.628
             4.175        263.097         5.871
           -15.997          7.491       232.098

Paramagnetic contribution to the shielding tensor (ppm): 
          -160.494         -9.146        50.457
           -11.905       -250.723       -31.327
            47.624        -33.446       -90.620

Total shielding tensor (ppm): 
            98.693         -6.907        31.830
            -7.730         12.374       -25.456
            31.627        -25.956       141.478


 Diagonalized sT*s matrix:
 
 sDSO           264.466          267.575          222.341  iso=     251.461
 sPSO          -257.037         -185.359          -59.440  iso=    -167.279
        ---------------  ---------------  ---------------
 Total            7.428           82.216          162.901  iso=      84.182

 --------------
 Nucleus   5C :
 --------------

Diamagnetic contribution to the shielding tensor (ppm) : 
           268.768         -0.799         6.802
            -0.892        262.015        -3.563
             2.880         -1.309       280.578

Paramagnetic contribution to the shielding tensor (ppm): 
          -252.794         16.680        54.675
            12.120       -241.708       -23.489
            57.932        -28.168      -188.802

Total shielding tensor (ppm): 
            15.974         15.881        61.477
            11.228         20.307       -27.052
            60.812        -29.477        91.777


 Diagonalized sT*s matrix:
 
 sDSO           266.537          262.520          282.304  iso=     270.454
 sPSO          -261.802         -268.157         -153.345  iso=    -227.768
        ---------------  ---------------  ---------------
 Total            4.735           -5.637          128.959  iso=      42.686

 --------------
 Nucleus   6O :
 --------------

Diamagnetic contribution to the shielding tensor (ppm) : 
           352.577          4.162       -67.458
             0.939        399.067        34.642
           -73.583         24.531       263.285

Paramagnetic contribution to the shielding tensor (ppm): 
          -127.464        -28.404        58.625
           -35.879       -225.974       -25.405
            63.125        -20.538       -39.895

Total shielding tensor (ppm): 
           225.112        -24.242        -8.832
           -34.940        173.093         9.237
           -10.457          3.992       223.390


 Diagonalized sT*s matrix:
 
 sDSO           393.591          220.447          400.891  iso=     338.310
 sPSO          -233.935           -3.217         -156.182  iso=    -131.111
        ---------------  ---------------  ---------------
 Total          159.656          217.231          244.709  iso=     207.198

 --------------
 Nucleus   7H :
 --------------

Diamagnetic contribution to the shielding tensor (ppm) : 
            14.372          3.002       -27.040
             3.427         42.250        14.228
           -28.420         12.557       -21.883

Paramagnetic contribution to the shielding tensor (ppm): 
            11.843         -4.041        24.263
            -3.194         -7.598       -11.697
            25.922         -9.453        45.037

Total shielding tensor (ppm): 
            26.215         -1.039        -2.778
             0.233         34.652         2.531
            -2.498          3.104        23.154


 Diagonalized sT*s matrix:
 
 sDSO           -39.053           28.596           45.196  iso=      11.580
 sPSO            60.299           -1.238           -9.780  iso=      16.427
        ---------------  ---------------  ---------------
 Total           21.247           27.358           35.416  iso=      28.007

 --------------
 Nucleus   8H :
 --------------

Diamagnetic contribution to the shielding tensor (ppm) : 
            12.498         15.444       -49.470
            15.753         30.857        15.463
           -49.469         14.722       -60.711

Paramagnetic contribution to the shielding tensor (ppm): 
            12.025        -16.477        47.837
           -16.632         -3.938       -13.986
            47.819        -13.143        83.603

Total shielding tensor (ppm): 
            24.522         -1.033        -1.633
            -0.880         26.919         1.477
            -1.649          1.579        22.891


 Diagonalized sT*s matrix:
 
 sDSO           -89.155           42.876           28.923  iso=      -5.785
 sPSO           110.889          -18.337           -0.864  iso=      30.563
        ---------------  ---------------  ---------------
 Total           21.734           24.539           28.059  iso=      24.777

 --------------
 Nucleus   9H :
 --------------

Diamagnetic contribution to the shielding tensor (ppm) : 
            58.326         -1.187        37.924
            -1.376         35.445       -18.292
            37.233        -17.131       109.555

Paramagnetic contribution to the shielding tensor (ppm): 
           -33.856          0.079       -39.573
             0.320         -9.559        19.666
           -38.891         18.487       -86.750

Total shielding tensor (ppm): 
            24.470         -1.108        -1.649
            -1.057         25.886         1.374
            -1.659          1.356        22.804


 Diagonalized sT*s matrix:
 
 sDSO           132.163           42.998           28.164  iso=      67.775
 sPSO          -110.479          -18.895           -0.792  iso=     -43.389
        ---------------  ---------------  ---------------
 Total           21.684           24.103           27.372  iso=      24.387

 --------------
 Nucleus  10H :
 --------------

Diamagnetic contribution to the shielding tensor (ppm) : 
            27.479          1.063        -3.339
             1.181         42.682         3.753
            -4.060          3.895        23.502

Paramagnetic contribution to the shielding tensor (ppm): 
            -0.231         -0.553         0.832
            -0.781        -18.009        -3.479
             1.449         -3.728         0.073

Total shielding tensor (ppm): 
            27.248          0.510        -2.507
             0.399         24.673         0.274
            -2.611          0.168        23.575


 Diagonalized sT*s matrix:
 
 sDSO            20.629           43.418           29.616  iso=      31.221
 sPSO             1.567          -18.702           -1.031  iso=      -6.056
        ---------------  ---------------  ---------------
 Total           22.196           24.716           28.585  iso=      25.165

 --------------
 Nucleus  11H :
 --------------

Diamagnetic contribution to the shielding tensor (ppm) : 
            34.262         -2.661        12.388
            -2.689         43.403        -1.732
            12.708         -1.666        52.377

Paramagnetic contribution to the shielding tensor (ppm): 
            -8.195          2.838       -14.627
             2.927        -19.543         2.030
           -14.859          2.038       -29.530

Total shielding tensor (ppm): 
            26.067          0.176        -2.239
             0.238         23.860         0.299
            -2.151          0.372        22.846


 Diagonalized sT*s matrix:
 
 sDSO            59.263           42.963           27.816  iso=      43.347
 sPSO           -37.599          -19.033           -0.637  iso=     -19.089
        ---------------  ---------------  ---------------
 Total           21.664           23.930           27.179  iso=      24.258

 --------------
 Nucleus  12H :
 --------------

Diamagnetic contribution to the shielding tensor (ppm) : 
            65.903        -15.528        48.085
           -15.911         34.686       -17.396
            49.621        -16.844       135.873

Paramagnetic contribution to the shielding tensor (ppm): 
           -41.238         16.727       -49.214
            17.185         -7.917        17.661
           -50.749         17.198      -113.188

Total shielding tensor (ppm): 
            24.665          1.199        -1.130
             1.274         26.770         0.265
            -1.128          0.354        22.685


 Diagonalized sT*s matrix:
 
 sDSO           164.839           43.652           27.970  iso=      78.821
 sPSO          -142.808          -18.914           -0.620  iso=     -54.114
        ---------------  ---------------  ---------------
 Total           22.032           24.738           27.350  iso=      24.707



--------------------------
CHEMICAL SHIELDING SUMMARY (ppm)
--------------------------


  Nucleus  Element    Isotropic     Anisotropy
  -------  -------  ------------   ------------
      0       C           83.583        136.869 
      1       C           66.829        166.859 
      2       C           77.118        158.233 
      3       C           67.345        164.034 
      4       C           84.182        118.079 
      5       C           42.686        129.410 
      6       O          207.198         56.265 
      7       H           28.007         11.114 
      8       H           24.777          4.923 
      9       H           24.387          4.479 
     10       H           25.165          5.129 
     11       H           24.258          4.382 
     12       H           24.707          3.965 



Timings for individual modules:

Sum of individual times         ...       45.319 sec (=   0.755 min)
GTO integral calculation        ...        0.240 sec (=   0.004 min)   0.5 %
SCF iterations                  ...       13.243 sec (=   0.221 min)  29.2 %
SCF-level EPR/NMR calculation   ...       31.836 sec (=   0.531 min)  70.2 %
                             ****ORCA TERMINATED NORMALLY****
TOTAL RUN TIME: 0 days 0 hours 0 minutes 45 seconds 417 msec
