
                                 *****************
                                 * O   R   C   A *
                                 *****************

           --- An Ab Initio, DFT and Semiempirical electronic structure package ---

                  #######################################################
                  #                        -***-                        #
                  #  Department of molecular theory and spectroscopy    #
                  #              Directorship: Frank Neese              #
                  # Max Planck Institute for Chemical Energy Conversion #
                  #                  D-45470 Muelheim/Ruhr              #
                  #                       Germany                       #
                  #                                                     #
                  #                  All rights reserved                #
                  #                        -***-                        #
                  #######################################################


                         Program Version 4.0.0.2 - RELEASE -


 With contributions from (in alphabetic order):
   Daniel Aravena         : Magnetic Properties
   Michael Atanasov       : Ab Initio Ligand Field Theory
   Ute Becker             : Parallelization
   Martin Brehm           : Molecular dynamics
   Dmytro Bykov           : SCF Hessian
   Vijay G. Chilkuri      : MRCI spin determinant printing
   Dipayan Datta          : RHF DLPNO-CCSD density
   Achintya Kumar Dutta   : EOM-CC, STEOM-CC
   Dmitry Ganyushin       : Spin-Orbit,Spin-Spin,Magnetic field MRCI
   Yang Guo               : DLPNO-NEVPT2, CIM, IAO-localization
   Andreas Hansen         : Spin unrestricted coupled pair/coupled cluster methods
   Lee Huntington         : MR-EOM, pCC
   Robert Izsak           : Overlap fitted RIJCOSX, COSX-SCS-MP3, EOM
   Christian Kollmar      : KDIIS, OOCD, Brueckner-CCSD(T), CCSD density
   Simone Kossmann        : Meta GGA functionals, TD-DFT gradient, OOMP2, MP2 Hessian
   Martin Krupicka        : AUTO-CI
   Dagmar Lenk            : GEPOL surface
   Dimitrios Liakos       : Extrapolation schemes; parallel MDCI
   Dimitrios Manganas     : ROCIS; embedding schemes
   Dimitrios Pantazis     : SARC Basis sets
   Taras Petrenko         : DFT Hessian,TD-DFT gradient, ASA, ECA, R-Raman, ABS, FL, XAS/XES, NRVS
   Peter Pinski           : DLPNO-MP2
   Christoph Reimann      : Effective Core Potentials
   Marius Retegan         : Local ZFS, SOC
   Christoph Riplinger    : Optimizer, TS searches, QM/MM, DLPNO-CCSD(T), (RO)-DLPNO pert. Triples
   Tobias Risthaus        : Range-separated hybrids, TD-DFT gradient, RPA, STAB
   Michael Roemelt        : Restricted open shell CIS
   Masaaki Saitow         : Open-shell DLPNO
   Barbara Sandhoefer     : DKH picture change effects
   Kantharuban Sivalingam : CASSCF convergence, NEVPT2, FIC-MRCI
   Georgi Stoychev        : AutoAux
   Boris Wezisla          : Elementary symmetry handling
   Frank Wennmohs         : Technical directorship


 We gratefully acknowledge several colleagues who have allowed us to
 interface, adapt or use parts of their codes:
   Stefan Grimme, W. Hujo, H. Kruse,             : VdW corrections, initial TS optimization,
                  C. Bannwarth                     DFT functionals, gCP, sTDA/sTD-DF
   Ed Valeev                                     : LibInt (2-el integral package), F12 methods
   Garnet Chan, S. Sharma, J. Yang, R. Olivares  : DMRG
   Ulf Ekstrom                                   : XCFun DFT Library
   Mihaly Kallay                                 : mrcc  (arbitrary order and MRCC methods)
   Jiri Pittner, Ondrej Demel                    : Mk-CCSD
   Frank Weinhold                                : gennbo (NPA and NBO analysis)
   Christopher J. Cramer and Donald G. Truhlar   : smd solvation model


 Your calculation uses the libint2 library for the computation of 2-el integrals
 For citations please refer to: http://libint.valeyev.net

 This ORCA versions uses:
   CBLAS   interface :  Fast vector & matrix operations
   LAPACKE interface :  Fast linear algebra routines
   SCALAPACK package :  Parallel linear algebra routines




*****************************************
The coordinations will be read from file: guess.xyz
*****************************************



Information: The global flag for chemical shieldings has been found
             ==>> will calculate the chemical shifts for all atoms in the system

Your calculation utilizes the basis: aug-cc-pVDZ 
    H, B-Ne : Obtained from the ccRepo (grant-hill.group.shef.ac.uk/ccrepo) Feb. 2017
              R. A. Kendall, T. H. Dunning, Jr., R. J. Harrison, J. Chem. Phys. 96, 6796 (1992)
         He : Obtained from the ccRepo (grant-hill.group.shef.ac.uk/ccrepo) Feb. 2017
              D. E. Woon, T. H. Dunning, Jr., J. Chem. Phys. 100, 2975 (1994)
  Li-Be, Na : Obtained from the ccRepo (grant-hill.group.shef.ac.uk/ccrepo) Feb. 2017
              B. P. Prascher, D. E. Woon, K. A. Peterson, T. H. Dunning, Jr., A. K. Wilson, Theor. Chem. Acc. 128, 69 (2011)
         Mg : Obtained from the Peterson Research Group Website (tyr0.chem.wsu.edu/~kipeters) Feb. 2017
              B. P. Prascher, D. E. Woon, K. A. Peterson, T. H. Dunning, Jr., A. K. Wilson, Theor. Chem. Acc. 128, 69 (2011)
      Al-Ar : Obtained from the ccRepo (grant-hill.group.shef.ac.uk/ccrepo) Feb. 2017
              D. E. Woon, T. H. Dunning, Jr., J. Chem. Phys. 98, 1358 (1993)
      Sc-Zn : Obtained from the ccRepo (grant-hill.group.shef.ac.uk/ccrepo) Feb. 2017
              N. B. Balabanov, K. A. Peterson, J. Chem. Phys. 123, 064107 (2005)
              N. B. Balabanov, K. A. Peterson, J. Chem. Phys. 125, 074110 (2006)
      Ga-Kr : Obtained from the ccRepo (grant-hill.group.shef.ac.uk/ccrepo) Feb. 2017
              A. K. Wilson, D. E. Woon, K. A. Peterson, T. H. Dunning, Jr., J. Chem. Phys. 110, 7667 (1999)

================================================================================
                                        WARNINGS
                       Please study these warnings very carefully!
================================================================================

Warning: TCutStore was < 0. Adjusted to Thresh (uncritical)

INFO   : the flag for use of LIBINT has been found!

CheckInput: checking for shifts: .

Warning: GIAO NMR calculation needs an auxiliary basis but have none
           ===>>> Using AutoAux, but it is safer for you to specify one in the input
           ===>>> Done building the auxiliary basis
           ===>>> Writing GBW file done
================================================================================
                                       INPUT FILE
================================================================================
NAME = /home/jan/SoftwareDevelopment/ORCAunleashed/output/meta_amino_phenol/meta_amino_phenol.in
|  1> !aug-cc-pVDZ B3LYP NMR
|  2> 
|  3> *xyzfile 0 1 guess.xyz
|  4> 
|  5> 
|  6>                          ****END OF INPUT****
================================================================================

                       ****************************
                       * Single Point Calculation *
                       ****************************

---------------------------------
CARTESIAN COORDINATES (ANGSTROEM)
---------------------------------
  C    -16.991890    1.956390    9.165270
  C    -15.904190    1.392230    8.492230
  C    -14.806770    2.221640    8.088330
  C    -14.715920    3.623870    8.317250
  C    -15.852940    4.151090    9.008520
  C    -16.958470    3.318820    9.416050
  O    -18.047700    3.840330   10.081500
  H    -17.916150    4.792320   10.200820
  H    -17.838070    1.342650    9.481790
  H    -15.900230    5.197230    9.238780
  H    -15.920200    0.314970    8.288560
  H    -13.994780    1.701160    7.566340
  N    -13.592790    4.385730    7.886770
  H    -12.856820    3.847080    7.400490
  H    -13.302750    5.365620    7.929680

----------------------------
CARTESIAN COORDINATES (A.U.)
----------------------------
  NO LB      ZA    FRAG     MASS         X           Y           Z
   0 C     6.0000    0    12.011  -32.110019    3.697041   17.319850
   1 C     6.0000    0    12.011  -30.054563    2.630933   16.047989
   2 C     6.0000    0    12.011  -27.980740    4.198291   15.284729
   3 C     6.0000    0    12.011  -27.809059    6.848122   15.717325
   4 C     6.0000    0    12.011  -29.957715    7.844423   17.023636
   5 C     6.0000    0    12.011  -32.046864    6.271661   17.793756
   6 O     8.0000    0    15.999  -34.105210    7.257172   19.051274
   7 H     1.0000    0     1.008  -33.856617    9.056172   19.276756
   8 H     1.0000    0     1.008  -33.709067    2.537241   17.917986
   9 H     1.0000    0     1.008  -30.047080    9.821341   17.458764
  10 H     1.0000    0     1.008  -30.084818    0.595207   15.663108
  11 H     1.0000    0     1.008  -26.446302    3.214727   14.298310
  12 N     7.0000    0    14.007  -25.686650    8.287829   14.903835
  13 H     1.0000    0     1.008  -24.295869    7.269928   13.984899
  14 H     1.0000    0     1.008  -25.138554   10.139552   14.984924

--------------------------------
INTERNAL COORDINATES (ANGSTROEM)
--------------------------------
 C      0   0   0     0.000000000000     0.00000000     0.00000000
 C      1   0   0     1.397980914462     0.00000000     0.00000000
 C      2   1   0     1.433662029385   119.85053032     0.00000000
 C      3   2   1     1.423694862602   124.98417318     0.00000000
 C      4   3   2     1.431303469464   112.93961725     0.00000000
 C      1   2   3     1.385721115412   117.71887901     0.00000000
 O      6   1   2     1.378846755626   116.11368725   180.00042565
 H      7   6   1     0.968415006596   108.90272104   180.00005938
 H      1   2   3     1.092191508116   121.03417618   180.00077048
 H      5   4   3     1.072224282182   119.87713880   179.99935318
 H      2   1   3     1.096461078470   118.33029738   180.00047758
 H      3   2   1     1.096677140548   115.23209901   180.00059688
 N      4   3   2     1.423785337367   121.92098993   180.00022761
 H     13   4   3     1.033568527868   115.15610605     0.00000000
 H     13   4   3     1.022814197105   136.35617414   180.00052295

---------------------------
INTERNAL COORDINATES (A.U.)
---------------------------
 C      0   0   0     0.000000000000     0.00000000     0.00000000
 C      1   0   0     2.641801068782     0.00000000     0.00000000
 C      2   1   0     2.709228604139   119.85053032     0.00000000
 C      3   2   1     2.690393388589   124.98417318     0.00000000
 C      4   3   2     2.704771571818   112.93961725     0.00000000
 C      1   2   3     2.618633406121   117.71887901     0.00000000
 O      6   1   2     2.605642748779   116.11368725   180.00042565
 H      7   6   1     1.830039146446   108.90272104   180.00005938
 H      1   2   3     2.063942836133   121.03417618   180.00077048
 H      5   4   3     2.026210247464   119.87713880   179.99935318
 H      2   1   3     2.072011154813   118.33029738   180.00047758
 H      3   2   1     2.072419452967   115.23209901   180.00059688
 N      4   3   2     2.690564361115   121.92098993   180.00022761
 H     13   4   3     1.953161458311   115.15610605     0.00000000
 H     13   4   3     1.932838718415   136.35617414   180.00052295

---------------------
BASIS SET INFORMATION
---------------------
There are 4 groups of distinct atoms

 Group   1 Type C   : 18s5p2d contracted to 4s3p2d pattern {8811/311/11}
 Group   2 Type O   : 18s5p2d contracted to 4s3p2d pattern {8811/311/11}
 Group   3 Type H   : 5s2p contracted to 3s2p pattern {311/11}
 Group   4 Type N   : 18s5p2d contracted to 4s3p2d pattern {8811/311/11}

Atom   0C    basis set group =>   1
Atom   1C    basis set group =>   1
Atom   2C    basis set group =>   1
Atom   3C    basis set group =>   1
Atom   4C    basis set group =>   1
Atom   5C    basis set group =>   1
Atom   6O    basis set group =>   2
Atom   7H    basis set group =>   3
Atom   8H    basis set group =>   3
Atom   9H    basis set group =>   3
Atom  10H    basis set group =>   3
Atom  11H    basis set group =>   3
Atom  12N    basis set group =>   4
Atom  13H    basis set group =>   3
Atom  14H    basis set group =>   3

INFORMATION: There is an auxiliary basis set but the global RI flag is NOT set

-------------------------------
AUXILIARY BASIS SET INFORMATION
-------------------------------
There are 4 groups of distinct atoms

 Group   1 Type C   : 18s15p14d5f contracted to 18s15p14d5f pattern {111111111111111111/111111111111111/11111111111111/11111}
 Group   2 Type O   : 18s15p14d5f contracted to 18s15p14d5f pattern {111111111111111111/111111111111111/11111111111111/11111}
 Group   3 Type H   : 12s5p4d contracted to 12s5p4d pattern {111111111111/11111/1111}
 Group   4 Type N   : 18s15p14d5f contracted to 18s15p14d5f pattern {111111111111111111/111111111111111/11111111111111/11111}

Atom   0C    basis set group =>   1
Atom   1C    basis set group =>   1
Atom   2C    basis set group =>   1
Atom   3C    basis set group =>   1
Atom   4C    basis set group =>   1
Atom   5C    basis set group =>   1
Atom   6O    basis set group =>   2
Atom   7H    basis set group =>   3
Atom   8H    basis set group =>   3
Atom   9H    basis set group =>   3
Atom  10H    basis set group =>   3
Atom  11H    basis set group =>   3
Atom  12N    basis set group =>   4
Atom  13H    basis set group =>   3
Atom  14H    basis set group =>   3

Checking for AutoStart:
The File: /home/jan/SoftwareDevelopment/ORCAunleashed/output/meta_amino_phenol/meta_amino_phenol.gbw exists
Trying to determine its content:
     ... Fine, the file contains calculation information
     ... Fine, the calculation information was read
     ... Fine, the file contains a basis set
     ... Fine, the basis set was read
     ... Fine, the file contains a geometry
     ... Fine, the geometry was read
     ... The file does not contain orbitals - skipping AutoStart
------------------------------------------------------------------------------
                           ORCA GTO INTEGRAL CALCULATION
------------------------------------------------------------------------------

                         BASIS SET STATISTICS AND STARTUP INFO

 # of primitive gaussian shells          ...  249
 # of primitive gaussian functions       ...  421
 # of contracted shells                  ...  107
 # of contracted basis functions         ...  247
 Highest angular momentum                ...    2
 Maximum contraction depth               ...    8
 Integral package used                   ... LIBINT
 Integral threshhold            Thresh   ...  1.000e-10
 Primitive cut-off              TCut     ...  1.000e-11


------------------------------ INTEGRAL EVALUATION ----------------------------


 * One electron integrals 
 Pre-screening matrix                    ... done
 Shell pair data                         ... done (   0.004 sec)

-------------------------------------------------------------------------------
                                 ORCA SCF
-------------------------------------------------------------------------------

------------
SCF SETTINGS
------------
Hamiltonian:
 Density Functional     Method          .... DFT(GTOs)
 Exchange Functional    Exchange        .... B88
   X-Alpha parameter    XAlpha          ....  0.666667
   Becke's b parameter  XBeta           ....  0.004200
 Correlation Functional Correlation     .... LYP
 LDA part of GGA corr.  LDAOpt          .... VWN-5
 Gradients option       PostSCFGGA      .... off
 Hybrid DFT is turned on
   Fraction HF Exchange ScalHFX         ....  0.200000
   Scaling of DF-GGA-X  ScalDFX         ....  0.720000
   Scaling of DF-GGA-C  ScalDFC         ....  0.810000
   Scaling of DF-LDA-C  ScalLDAC        ....  1.000000
   Perturbative correction              ....  0.000000
   NL short-range parameter             ....  4.800000


General Settings:
 Integral files         IntName         .... /home/jan/SoftwareDevelopment/ORCAunleashed/output/meta_amino_phenol/meta_amino_phenol
 Hartree-Fock type      HFTyp           .... RHF
 Total Charge           Charge          ....    0
 Multiplicity           Mult            ....    1
 Number of Electrons    NEL             ....   58
 Basis Dimension        Dim             ....  247
 Nuclear Repulsion      ENuc            ....    339.9697631900 Eh

Convergence Acceleration:
 DIIS                   CNVDIIS         .... on
   Start iteration      DIISMaxIt       ....    12
   Startup error        DIISStart       ....  0.200000
   # of expansion vecs  DIISMaxEq       ....     5
   Bias factor          DIISBfac        ....   1.050
   Max. coefficient     DIISMaxC        ....  10.000
 Newton-Raphson         CNVNR           .... off
 SOSCF                  CNVSOSCF        .... on
   Start iteration      SOSCFMaxIt      ....   150
   Startup grad/error   SOSCFStart      ....  0.003300
 Level Shifting         CNVShift        .... on
   Level shift para.    LevelShift      ....    0.2500
   Turn off err/grad.   ShiftErr        ....    0.0010
 Zerner damping         CNVZerner       .... off
 Static damping         CNVDamp         .... on
   Fraction old density DampFac         ....    0.7000
   Max. Damping (<1)    DampMax         ....    0.9800
   Min. Damping (>=0)   DampMin         ....    0.0000
   Turn off err/grad.   DampErr         ....    0.1000
 Fernandez-Rico         CNVRico         .... off

SCF Procedure:
 Maximum # iterations   MaxIter         ....   125
 SCF integral mode      SCFMode         .... Direct
   Integral package                     .... LIBINT
 Reset frequeny         DirectResetFreq ....    20
 Integral Threshold     Thresh          ....  1.000e-10 Eh
 Primitive CutOff       TCut            ....  1.000e-11 Eh

Convergence Tolerance:
 Convergence Check Mode ConvCheckMode   .... Total+1el-Energy
 Convergence forced     ConvForced      .... 0
 Energy Change          TolE            ....  1.000e-06 Eh
 1-El. energy change                    ....  1.000e-03 Eh
 Orbital Gradient       TolG            ....  5.000e-05
 Orbital Rotation angle TolX            ....  5.000e-05
 DIIS Error             TolErr          ....  1.000e-06


Diagonalization of the overlap matrix:
Smallest eigenvalue                        ... 1.788e-04
Time for diagonalization                   ...    0.010 sec
Threshold for overlap eigenvalues          ... 1.000e-08
Number of eigenvalues below threshold      ... 0
Time for construction of square roots      ...    0.002 sec
Total time needed                          ...    0.012 sec

-------------------
DFT GRID GENERATION
-------------------

General Integration Accuracy     IntAcc      ...  4.340
Radial Grid Type                 RadialGrid  ... Gauss-Chebyshev
Angular Grid (max. acc.)         AngularGrid ... Lebedev-110
Angular grid pruning method      GridPruning ... 3 (G Style)
Weight generation scheme         WeightScheme... Becke
Basis function cutoff            BFCut       ...    1.0000e-10
Integration weight cutoff        WCut        ...    1.0000e-14
Grids for H and He will be reduced by one unit

# of grid points (after initial pruning)     ...  18912 (   0.0 sec)
# of grid points (after weights+screening)   ...  17728 (   0.0 sec)
nearest neighbour list constructed           ...    0.0 sec
Grid point re-assignment to atoms done       ...    0.0 sec
Grid point division into batches done        ...    0.0 sec
Reduced shell lists constructed in    0.5 sec

Total number of grid points                  ...    17728
Total number of batches                      ...      285
Average number of points per batch           ...       62
Average number of grid points per atom       ...     1182
Average number of shells per batch           ...    90.27 (84.37%)
Average number of basis functions per batch  ...   208.61 (84.46%)
Average number of large shells per batch     ...    76.14 (84.34%)
Average number of large basis fcns per batch ...   177.80 (85.23%)
Maximum spatial batch extension              ...  21.56, 20.63, 22.90 au
Average spatial batch extension              ...   4.06,  3.70,  4.73 au

Time for grid setup =    0.556 sec

------------------------------
INITIAL GUESS: MODEL POTENTIAL
------------------------------
Loading Hartree-Fock densities                     ... done
Calculating cut-offs                               ... done
Setting up the integral package                    ... done
Initializing the effective Hamiltonian             ... done
Starting the Coulomb interaction                   ... done (   0.5 sec)
Reading the grid                                   ... done
Mapping shells                                     ... done
Starting the XC term evaluation                    ... done (   0.9 sec)
  promolecular density results
     # of electrons  =     58.001714380
     EX              =    -47.658673663
     EC              =     -1.956147905
     EX+EC           =    -49.614821568
Transforming the Hamiltonian                       ... done (   0.0 sec)
Diagonalizing the Hamiltonian                      ... done (   0.0 sec)
Back transforming the eigenvectors                 ... done (   0.0 sec)
Now organizing SCF variables                       ... done
                      ------------------
                      INITIAL GUESS DONE (   2.1 sec)
                      ------------------
--------------
SCF ITERATIONS
--------------
ITER       Energy         Delta-E        Max-DP      RMS-DP      [F,P]     Damp
               ***  Starting incremental Fock matrix formation  ***
  0   -362.4194416795   0.000000000000 1.92361897  0.01556433  9.1753561 0.7000
  1   -362.5270120928  -0.107570413319 1.13722287  0.00897762  4.8980729 0.7000
  2   -362.5699683911  -0.042956298342 0.43559953  0.00339725  2.2077925 0.7000
  3   -362.5935323586  -0.023563967439 0.12593749  0.00112832  0.9458858 0.7000
                      *** Initiating the SOSCF procedure ***
                      *** Re-Reading the Fockian *** 
                      *** Removing any level shift *** 
ITER      Energy       Delta-E        Grad      Rot      Max-DP    RMS-DP
  4   -362.61013466  -0.0166023023  0.002612  0.002612  0.117196  0.001831
               *** Restarting incremental Fock matrix formation ***
  5   -362.64934028  -0.0392056190  0.001458  0.004678  0.101786  0.000886
  6   -362.64931726   0.0000230156  0.002006  0.004015  0.090656  0.000692
  7   -362.64954154  -0.0002242745  0.000518  0.001517  0.053602  0.000430
  8   -362.64954159  -0.0000000476  0.000353  0.000577  0.030519  0.000233
  9   -362.64955658  -0.0000149979  0.000068  0.000258  0.001679  0.000025
 10   -362.64955664  -0.0000000523  0.000099  0.000238  0.003601  0.000028
 11   -362.64955702  -0.0000003849  0.000045  0.000123  0.003210  0.000023
 12   -362.64955703  -0.0000000056  0.000030  0.000051  0.001597  0.000011
                 **** Energy Check signals convergence ****
              ***Rediagonalizing the Fockian in SOSCF/NRSCF***

               *****************************************************
               *                     SUCCESS                       *
               *           SCF CONVERGED AFTER  13 CYCLES          *
               *****************************************************

Setting up the final grid:

General Integration Accuracy     IntAcc      ...  4.670
Radial Grid Type                 RadialGrid  ... Gauss-Chebyshev
Angular Grid (max. acc.)         AngularGrid ... Lebedev-302
Angular grid pruning method      GridPruning ... 3 (G Style)
Weight generation scheme         WeightScheme... Becke
Basis function cutoff            BFCut       ...    1.0000e-10
Integration weight cutoff        WCut        ...    1.0000e-14
Grids for H and He will be reduced by one unit

# of grid points (after initial pruning)     ...  73454 (   0.0 sec)
# of grid points (after weights+screening)   ...  67763 (   0.1 sec)
nearest neighbour list constructed           ...    0.0 sec
Grid point re-assignment to atoms done       ...    0.0 sec
Grid point division into batches done        ...    0.2 sec
Reduced shell lists constructed in    2.0 sec

Total number of grid points                  ...    67763
Total number of batches                      ...     1067
Average number of points per batch           ...       63
Average number of grid points per atom       ...     4518
Average number of shells per batch           ...    85.51 (79.92%)
Average number of basis functions per batch  ...   197.24 (79.85%)
Average number of large shells per batch     ...    70.72 (82.70%)
Average number of large basis fcns per batch ...   164.29 (83.30%)
Maximum spatial batch extension              ...  19.42, 19.26, 27.61 au
Average spatial batch extension              ...   2.65,  2.46,  2.89 au

Final grid set up in    2.1 sec
Final integration                            ... done (   3.0 sec)
Change in XC energy                          ...     0.000605201
Integrated number of electrons               ...    57.999969118
Previous integrated no of electrons          ...    58.004530965

----------------
TOTAL SCF ENERGY
----------------

Total Energy       :         -362.64895187 Eh           -9868.17967 eV

Components:
Nuclear Repulsion  :          339.96976319 Eh            9251.04757 eV
Electronic Energy  :         -702.61871506 Eh          -19119.22724 eV
One Electron Energy:        -1164.61857735 Eh          -31690.88262 eV
Two Electron Energy:          461.99986230 Eh           12571.65538 eV

Virial components:
Potential Energy   :         -722.78310929 Eh          -19667.92830 eV
Kinetic Energy     :          360.13415742 Eh            9799.74863 eV
Virial Ratio       :            2.00698294


DFT components:
N(Alpha)           :       28.999984559117 electrons
N(Beta)            :       28.999984559117 electrons
N(Total)           :       57.999969118235 electrons
E(X)               :      -38.404708869260 Eh       
E(C)               :       -2.310550155437 Eh       
E(XC)              :      -40.715259024698 Eh       

---------------
SCF CONVERGENCE
---------------

  Last Energy change         ...   -4.0703e-08  Tolerance :   1.0000e-06
  Last MAX-Density change    ...    3.2729e-04  Tolerance :   1.0000e-05
  Last RMS-Density change    ...    2.6635e-06  Tolerance :   1.0000e-06
  Last Orbital Gradient      ...    6.9789e-06  Tolerance :   5.0000e-05
  Last Orbital Rotation      ...    3.1685e-05  Tolerance :   5.0000e-05

             **** THE GBW FILE WAS UPDATED (/home/jan/SoftwareDevelopment/ORCAunleashed/output/meta_amino_phenol/meta_amino_phenol.gbw) ****
             **** DENSITY FILE WAS UPDATED (/home/jan/SoftwareDevelopment/ORCAunleashed/output/meta_amino_phenol/meta_amino_phenol.scfp.tmp) ****
             **** ENERGY FILE WAS UPDATED (/home/jan/SoftwareDevelopment/ORCAunleashed/output/meta_amino_phenol/meta_amino_phenol.en.tmp) ****
----------------
ORBITAL ENERGIES
----------------

  NO   OCC          E(Eh)            E(eV) 
   0   2.0000     -19.176415      -521.8168 
   1   2.0000     -14.350944      -390.5090 
   2   2.0000     -10.248603      -278.8787 
   3   2.0000     -10.246871      -278.8315 
   4   2.0000     -10.191974      -277.3377 
   5   2.0000     -10.186237      -277.1816 
   6   2.0000     -10.181198      -277.0445 
   7   2.0000     -10.171774      -276.7880 
   8   2.0000      -1.058333       -28.7987 
   9   2.0000      -0.907507       -24.6945 
  10   2.0000      -0.827628       -22.5209 
  11   2.0000      -0.736781       -20.0488 
  12   2.0000      -0.724560       -19.7163 
  13   2.0000      -0.625205       -17.0127 
  14   2.0000      -0.599802       -16.3214 
  15   2.0000      -0.544082       -14.8052 
  16   2.0000      -0.522048       -14.2057 
  17   2.0000      -0.484218       -13.1762 
  18   2.0000      -0.473262       -12.8781 
  19   2.0000      -0.445305       -12.1174 
  20   2.0000      -0.418472       -11.3872 
  21   2.0000      -0.405410       -11.0318 
  22   2.0000      -0.383317       -10.4306 
  23   2.0000      -0.359060        -9.7705 
  24   2.0000      -0.355222        -9.6661 
  25   2.0000      -0.351087        -9.5536 
  26   2.0000      -0.295859        -8.0507 
  27   2.0000      -0.226216        -6.1556 
  28   2.0000      -0.205398        -5.5892 
  29   0.0000      -0.017892        -0.4869 
  30   0.0000      -0.011157        -0.3036 
  31   0.0000      -0.006067        -0.1651 
  32   0.0000       0.005159         0.1404 
  33   0.0000       0.008820         0.2400 
  34   0.0000       0.019767         0.5379 
  35   0.0000       0.027234         0.7411 
  36   0.0000       0.043880         1.1940 
  37   0.0000       0.053828         1.4647 
  38   0.0000       0.060675         1.6511 
  39   0.0000       0.061956         1.6859 
  40   0.0000       0.075996         2.0680 
  41   0.0000       0.078794         2.1441 
  42   0.0000       0.085698         2.3320 
  43   0.0000       0.095531         2.5995 
  44   0.0000       0.098851         2.6899 
  45   0.0000       0.103231         2.8091 
  46   0.0000       0.104931         2.8553 
  47   0.0000       0.107166         2.9161 
  48   0.0000       0.111857         3.0438 
  49   0.0000       0.119317         3.2468 
  50   0.0000       0.121791         3.3141 
  51   0.0000       0.123700         3.3661 
  52   0.0000       0.125559         3.4166 
  53   0.0000       0.134042         3.6475 
  54   0.0000       0.136023         3.7014 
  55   0.0000       0.147989         4.0270 
  56   0.0000       0.153502         4.1770 
  57   0.0000       0.160823         4.3762 
  58   0.0000       0.163255         4.4424 
  59   0.0000       0.177197         4.8218 
  60   0.0000       0.183586         4.9956 
  61   0.0000       0.191609         5.2139 
  62   0.0000       0.204968         5.5775 
  63   0.0000       0.215512         5.8644 
  64   0.0000       0.223463         6.0807 
  65   0.0000       0.229464         6.2440 
  66   0.0000       0.230910         6.2834 
  67   0.0000       0.241648         6.5756 
  68   0.0000       0.242446         6.5973 
  69   0.0000       0.244297         6.6477 
  70   0.0000       0.252909         6.8820 
  71   0.0000       0.259265         7.0549 
  72   0.0000       0.266657         7.2561 
  73   0.0000       0.271062         7.3760 
  74   0.0000       0.271558         7.3895 
  75   0.0000       0.288691         7.8557 
  76   0.0000       0.294850         8.0233 
  77   0.0000       0.296813         8.0767 
  78   0.0000       0.309976         8.4349 
  79   0.0000       0.310265         8.4427 
  80   0.0000       0.326973         8.8974 
  81   0.0000       0.333622         9.0783 
  82   0.0000       0.334522         9.1028 
  83   0.0000       0.345795         9.4096 
  84   0.0000       0.351901         9.5757 
  85   0.0000       0.355228         9.6662 
  86   0.0000       0.361857         9.8466 
  87   0.0000       0.364538         9.9196 
  88   0.0000       0.386017        10.5041 
  89   0.0000       0.400299        10.8927 
  90   0.0000       0.412282        11.2188 
  91   0.0000       0.413712        11.2577 
  92   0.0000       0.415864        11.3162 
  93   0.0000       0.421140        11.4598 
  94   0.0000       0.441705        12.0194 
  95   0.0000       0.462240        12.5782 
  96   0.0000       0.471827        12.8391 
  97   0.0000       0.475145        12.9293 
  98   0.0000       0.483244        13.1497 
  99   0.0000       0.491044        13.3620 
 100   0.0000       0.501115        13.6360 
 101   0.0000       0.506910        13.7937 
 102   0.0000       0.524949        14.2846 
 103   0.0000       0.531334        14.4583 
 104   0.0000       0.547392        14.8953 
 105   0.0000       0.551462        15.0060 
 106   0.0000       0.552894        15.0450 
 107   0.0000       0.565159        15.3788 
 108   0.0000       0.570102        15.5133 
 109   0.0000       0.574310        15.6278 
 110   0.0000       0.584574        15.9071 
 111   0.0000       0.587567        15.9885 
 112   0.0000       0.590531        16.0692 
 113   0.0000       0.594553        16.1786 
 114   0.0000       0.601010        16.3543 
 115   0.0000       0.614554        16.7229 
 116   0.0000       0.617347        16.7989 
 117   0.0000       0.625268        17.0144 
 118   0.0000       0.640098        17.4179 
 119   0.0000       0.649715        17.6796 
 120   0.0000       0.657970        17.9043 
 121   0.0000       0.666011        18.1231 
 122   0.0000       0.693058        18.8591 
 123   0.0000       0.703415        19.1409 
 124   0.0000       0.721666        19.6375 
 125   0.0000       0.732122        19.9221 
 126   0.0000       0.734916        19.9981 
 127   0.0000       0.746522        20.3139 
 128   0.0000       0.759169        20.6580 
 129   0.0000       0.765846        20.8397 
 130   0.0000       0.769184        20.9306 
 131   0.0000       0.775699        21.1078 
 132   0.0000       0.776988        21.1429 
 133   0.0000       0.787632        21.4326 
 134   0.0000       0.804154        21.8822 
 135   0.0000       0.808878        22.0107 
 136   0.0000       0.824741        22.4424 
 137   0.0000       0.843508        22.9530 
 138   0.0000       0.856755        23.3135 
 139   0.0000       0.865284        23.5456 
 140   0.0000       0.876233        23.8435 
 141   0.0000       0.913163        24.8484 
 142   0.0000       0.929542        25.2941 
 143   0.0000       0.944265        25.6948 
 144   0.0000       0.951893        25.9023 
 145   0.0000       0.978519        26.6268 
 146   0.0000       0.979992        26.6669 
 147   0.0000       1.014001        27.5924 
 148   0.0000       1.026827        27.9414 
 149   0.0000       1.063636        28.9430 
 150   0.0000       1.084386        29.5076 
 151   0.0000       1.130432        30.7606 
 152   0.0000       1.170253        31.8442 
 153   0.0000       1.187557        32.3151 
 154   0.0000       1.232155        33.5286 
 155   0.0000       1.236350        33.6428 
 156   0.0000       1.263867        34.3916 
 157   0.0000       1.264990        34.4221 
 158   0.0000       1.282479        34.8980 
 159   0.0000       1.316611        35.8268 
 160   0.0000       1.329103        36.1667 
 161   0.0000       1.345958        36.6254 
 162   0.0000       1.365687        37.1622 
 163   0.0000       1.395085        37.9622 
 164   0.0000       1.404487        38.2180 
 165   0.0000       1.409301        38.3490 
 166   0.0000       1.423866        38.7454 
 167   0.0000       1.440130        39.1879 
 168   0.0000       1.445669        39.3387 
 169   0.0000       1.445971        39.3469 
 170   0.0000       1.456027        39.6205 
 171   0.0000       1.464976        39.8640 
 172   0.0000       1.473985        40.1092 
 173   0.0000       1.501196        40.8496 
 174   0.0000       1.520053        41.3628 
 175   0.0000       1.521334        41.3976 
 176   0.0000       1.560685        42.4684 
 177   0.0000       1.587568        43.1999 
 178   0.0000       1.590975        43.2926 
 179   0.0000       1.614842        43.9421 
 180   0.0000       1.638183        44.5772 
 181   0.0000       1.642969        44.7074 
 182   0.0000       1.667645        45.3789 
 183   0.0000       1.681058        45.7439 
 184   0.0000       1.696578        46.1662 
 185   0.0000       1.707527        46.4642 
 186   0.0000       1.717304        46.7302 
 187   0.0000       1.730807        47.0976 
 188   0.0000       1.760566        47.9074 
 189   0.0000       1.766748        48.0757 
 190   0.0000       1.786702        48.6186 
 191   0.0000       1.804088        49.0917 
 192   0.0000       1.833721        49.8981 
 193   0.0000       1.864397        50.7328 
 194   0.0000       1.869704        50.8772 
 195   0.0000       1.880836        51.1802 
 196   0.0000       1.912677        52.0466 
 197   0.0000       1.926958        52.4352 
 198   0.0000       1.938012        52.7360 
 199   0.0000       1.948701        53.0269 
 200   0.0000       1.959787        53.3285 
 201   0.0000       1.967626        53.5418 
 202   0.0000       1.978972        53.8506 
 203   0.0000       2.012327        54.7582 
 204   0.0000       2.040493        55.5246 
 205   0.0000       2.043737        55.6129 
 206   0.0000       2.059794        56.0498 
 207   0.0000       2.065728        56.2113 
 208   0.0000       2.069297        56.3084 
 209   0.0000       2.076018        56.4913 
 210   0.0000       2.124881        57.8209 
 211   0.0000       2.149368        58.4873 
 212   0.0000       2.179103        59.2964 
 213   0.0000       2.219213        60.3879 
 214   0.0000       2.229792        60.6757 
 215   0.0000       2.275917        61.9309 
 216   0.0000       2.279287        62.0225 
 217   0.0000       2.290105        62.3169 
 218   0.0000       2.332963        63.4832 
 219   0.0000       2.387086        64.9559 
 220   0.0000       2.457113        66.8614 
 221   0.0000       2.478152        67.4339 
 222   0.0000       2.502577        68.0986 
 223   0.0000       2.537530        69.0497 
 224   0.0000       2.561759        69.7090 
 225   0.0000       2.583925        70.3122 
 226   0.0000       2.612009        71.0764 
 227   0.0000       2.657171        72.3053 
 228   0.0000       2.718138        73.9643 
 229   0.0000       2.758920        75.0740 
 230   0.0000       2.799071        76.1666 
 231   0.0000       2.826935        76.9248 
 232   0.0000       2.834457        77.1295 
 233   0.0000       2.886089        78.5345 
 234   0.0000       2.951969        80.3272 
 235   0.0000       3.001537        81.6760 
 236   0.0000       3.018667        82.1421 
 237   0.0000       3.279062        89.2278 
 238   0.0000       3.312147        90.1281 
 239   0.0000       3.370936        91.7278 
 240   0.0000       3.388555        92.2073 
 241   0.0000       3.403773        92.6214 
 242   0.0000       3.426861        93.2496 
 243   0.0000       3.511532        95.5537 
 244   0.0000       3.619778        98.4992 
 245   0.0000       3.969638       108.0193 
 246   0.0000       4.333921       117.9320 

                    ********************************
                    * MULLIKEN POPULATION ANALYSIS *
                    ********************************

-----------------------
MULLIKEN ATOMIC CHARGES
-----------------------
   0 C :    0.786142
   1 C :    0.603819
   2 C :    1.143206
   3 C :   -0.113217
   4 C :    1.523273
   5 C :    0.361054
   6 O :   -0.574192
   7 H :    0.154848
   8 H :   -0.747948
   9 H :   -1.021374
  10 H :   -0.768972
  11 H :   -0.989182
  12 N :   -0.104364
  13 H :   -0.077252
  14 H :   -0.175840
Sum of atomic charges:   -0.0000000

--------------------------------
MULLIKEN REDUCED ORBITAL CHARGES
--------------------------------
  0 C s       :    62.830753  s :    62.830753
      pz      :     2.327901  p :     5.943133
      px      :     1.884062
      py      :     1.731170
      dz2     :     0.006297  d :    -0.257155
      dxz     :    -0.006530
      dyz     :    -0.031937
      dx2y2   :    -0.116259
      dxy     :    -0.108726
  1 C s       :    62.586680  s :    62.586680
      pz      :     2.169786  p :     5.544687
      px      :     1.441632
      py      :     1.933269
      dz2     :     0.016056  d :    -0.306595
      dxz     :    -0.016979
      dyz     :    -0.042539
      dx2y2   :    -0.115486
      dxy     :    -0.147648
  2 C s       :    62.882766  s :    62.882766
      pz      :     2.480591  p :     4.316481
      px      :     1.506610
      py      :     0.329279
      dz2     :     0.004863  d :    -0.487210
      dxz     :    -0.049118
      dyz     :    -0.053864
      dx2y2   :    -0.163255
      dxy     :    -0.225836
  3 C s       :    63.999382  s :    63.999382
      pz      :     2.083797  p :     4.379603
      px      :     1.868287
      py      :     0.427518
      dz2     :     0.028997  d :    -0.226346
      dxz     :    -0.019616
      dyz     :    -0.005159
      dx2y2   :    -0.242282
      dxy     :     0.011714
  4 C s       :    63.706974  s :    63.706974
      pz      :     2.212314  p :     4.681126
      px      :     0.572597
      py      :     1.896216
      dz2     :     0.006926  d :    -0.592592
      dxz     :    -0.019707
      dyz     :    -0.091362
      dx2y2   :    -0.177874
      dxy     :    -0.310575
  5 C s       :    65.031916  s :    65.031916
      pz      :     2.267187  p :     4.509838
      px      :     1.602277
      py      :     0.640373
      dz2     :     0.021852  d :    -0.127826
      dxz     :    -0.016124
      dyz     :     0.004630
      dx2y2   :    -0.108235
      dxy     :    -0.029950
  6 O s       :   174.845589  s :   174.845589
      pz      :    23.995398  p :    64.212122
      px      :    21.515319
      py      :    18.701405
      dz2     :     0.009568  d :     0.048553
      dxz     :     0.015223
      dyz     :     0.004972
      dx2y2   :     0.007214
      dxy     :     0.011577
  7 H s       :     0.388950  s :     0.388950
      pz      :     0.028141  p :     0.080130
      px      :     0.012921
      py      :     0.039069
  8 H s       :     0.171813  s :     0.171813
      pz      :    -0.000629  p :    -0.100906
      px      :    -0.053596
      py      :    -0.046681
  9 H s       :     0.146852  s :     0.146852
      pz      :     0.000683  p :    -0.091805
      px      :    -0.030313
      py      :    -0.062175
 10 H s       :     0.172105  s :     0.172105
      pz      :     0.002662  p :    -0.058742
      px      :    -0.016669
      py      :    -0.044736
 11 H s       :     0.099581  s :     0.099581
      pz      :     0.000860  p :    -0.099420
      px      :    -0.059850
      py      :    -0.040431
 12 N s       :   114.517559  s :   114.517559
      pz      :     9.819526  p :    24.571289
      px      :     7.652168
      py      :     7.099596
      dz2     :    -0.000906  d :    -0.050525
      dxz     :    -0.000434
      dyz     :    -0.001908
      dx2y2   :    -0.022726
      dxy     :    -0.024550
 13 H s       :     0.536579  s :     0.536579
      pz      :     0.026065  p :    -0.003138
      px      :    -0.008116
      py      :    -0.021087
 14 H s       :     0.627730  s :     0.627730
      pz      :     0.030481  p :     0.034098
      px      :    -0.000224
      py      :     0.003841


                     *******************************
                     * LOEWDIN POPULATION ANALYSIS *
                     *******************************

----------------------
LOEWDIN ATOMIC CHARGES
----------------------
   0 C :   -0.242526
   1 C :   -0.262864
   2 C :   -0.223247
   3 C :   -0.792123
   4 C :   -0.116793
   5 C :   -0.847601
   6 O :    0.520222
   7 H :    0.162703
   8 H :    0.302000
   9 H :    0.272720
  10 H :    0.300666
  11 H :    0.298986
  12 N :    0.174909
  13 H :    0.237356
  14 H :    0.215592

-------------------------------
LOEWDIN REDUCED ORBITAL CHARGES
-------------------------------
  0 C s       :     2.172237  s :     2.172237
      pz      :     0.818209  p :     2.815404
      px      :     0.963426
      py      :     1.033769
      dz2     :     0.145701  d :     1.254886
      dxz     :     0.153130
      dyz     :     0.227829
      dx2y2   :     0.330278
      dxy     :     0.397948
  1 C s       :     2.201160  s :     2.201160
      pz      :     0.788699  p :     2.777576
      px      :     1.004355
      py      :     0.984522
      dz2     :     0.173738  d :     1.284128
      dxz     :     0.263654
      dyz     :     0.119989
      dx2y2   :     0.452048
      dxy     :     0.274698
  2 C s       :     2.185155  s :     2.185155
      pz      :     0.810033  p :     2.817363
      px      :     0.956612
      py      :     1.050718
      dz2     :     0.108294  d :     1.220728
      dxz     :     0.153483
      dyz     :     0.218558
      dx2y2   :     0.339427
      dxy     :     0.400967
  3 C s       :     2.134853  s :     2.134853
      pz      :     0.760128  p :     2.656687
      px      :     0.882975
      py      :     1.013584
      dz2     :     0.243393  d :     2.000583
      dxz     :     0.321811
      dyz     :     0.338520
      dx2y2   :     0.528020
      dxy     :     0.568840
  4 C s       :     2.163012  s :     2.163012
      pz      :     0.836215  p :     2.796265
      px      :     0.993174
      py      :     0.966875
      dz2     :     0.151622  d :     1.157517
      dxz     :     0.227962
      dyz     :     0.121367
      dx2y2   :     0.368044
      dxy     :     0.288522
  5 C s       :     2.153902  s :     2.153902
      pz      :     0.710528  p :     2.589281
      px      :     0.823826
      py      :     1.054927
      dz2     :     0.272618  d :     2.104419
      dxz     :     0.354122
      dyz     :     0.334108
      dx2y2   :     0.564406
      dxy     :     0.579165
  6 O s       :     2.851193  s :     2.851193
      pz      :     1.544712  p :     4.425924
      px      :     1.535843
      py      :     1.345369
      dz2     :     0.031292  d :     0.202661
      dxz     :     0.051280
      dyz     :     0.016543
      dx2y2   :     0.066566
      dxy     :     0.036980
  7 H s       :     0.372135  s :     0.372135
      pz      :     0.101010  p :     0.465161
      px      :     0.101876
      py      :     0.262275
  8 H s       :     0.398595  s :     0.398595
      pz      :     0.073802  p :     0.299405
      px      :     0.127311
      py      :     0.098292
  9 H s       :     0.407884  s :     0.407884
      pz      :     0.076094  p :     0.319396
      px      :     0.074450
      py      :     0.168852
 10 H s       :     0.403276  s :     0.403276
      pz      :     0.065678  p :     0.296057
      px      :     0.067994
      py      :     0.162386
 11 H s       :     0.398219  s :     0.398219
      pz      :     0.089751  p :     0.302796
      px      :     0.121206
      py      :     0.091839
 12 N s       :     2.518146  s :     2.518146
      pz      :     1.345449  p :     3.885322
      px      :     1.284551
      py      :     1.255322
      dz2     :     0.047258  d :     0.421622
      dxz     :     0.075321
      dyz     :     0.043748
      dx2y2   :     0.118922
      dxy     :     0.136374
 13 H s       :     0.361327  s :     0.361327
      pz      :     0.129068  p :     0.401317
      px      :     0.148188
      py      :     0.124061
 14 H s       :     0.380002  s :     0.380002
      pz      :     0.110908  p :     0.404406
      px      :     0.083811
      py      :     0.209687


                      *****************************
                      * MAYER POPULATION ANALYSIS *
                      *****************************

  NA   - Mulliken gross atomic population
  ZA   - Total nuclear charge
  QA   - Mulliken gross atomic charge
  VA   - Mayer's total valence
  BVA  - Mayer's bonded valence
  FA   - Mayer's free valence

  ATOM       NA         ZA         QA         VA         BVA        FA
  0 C      5.2139     6.0000     0.7861     3.0124     3.0124     0.0000
  1 C      5.3962     6.0000     0.6038     2.8323     2.8323     0.0000
  2 C      4.8568     6.0000     1.1432     1.9509     1.9509     0.0000
  3 C      6.1132     6.0000    -0.1132     3.9933     3.9933     0.0000
  4 C      4.4767     6.0000     1.5233     0.9950     0.9950    -0.0000
  5 C      5.6389     6.0000     0.3611     3.1589     3.1589    -0.0000
  6 O      8.5742     8.0000    -0.5742     1.4443     1.4443     0.0000
  7 H      0.8452     1.0000     0.1548     0.9892     0.9892     0.0000
  8 H      1.7479     1.0000    -0.7479     0.2187     0.2187    -0.0000
  9 H      2.0214     1.0000    -1.0214    -0.1595    -0.1595    -0.0000
 10 H      1.7690     1.0000    -0.7690     0.2804     0.2804    -0.0000
 11 H      1.9892     1.0000    -0.9892    -0.1402    -0.1402     0.0000
 12 N      7.1044     7.0000    -0.1044     2.7899     2.7899    -0.0000
 13 H      1.0773     1.0000    -0.0773     0.8766     0.8766     0.0000
 14 H      1.1758     1.0000    -0.1758     0.9696     0.9696     0.0000

  Mayer bond orders larger than 0.1
B(  0-C ,  1-C ) :   1.6680 B(  0-C ,  3-C ) :   0.2976 B(  0-C ,  4-C ) :  -0.3085 
B(  0-C ,  5-C ) :   1.6012 B(  0-C ,  8-H ) :  -0.5171 B(  0-C , 10-H ) :   0.4018 
B(  1-C ,  2-C ) :   1.3180 B(  1-C ,  3-C ) :  -0.4074 B(  1-C ,  4-C ) :   0.2888 
B(  1-C ,  5-C ) :  -0.3288 B(  1-C , 10-H ) :  -0.2757 B(  1-C , 11-H ) :   0.3317 
B(  2-C ,  3-C ) :   1.3407 B(  2-C ,  4-C ) :  -0.2081 B(  2-C ,  5-C ) :   0.2307 
B(  2-C ,  9-H ) :  -0.1409 B(  2-C , 10-H ) :   0.2905 B(  2-C , 11-H ) :  -0.8184 
B(  3-C ,  4-C ) :   1.0659 B(  3-C ,  5-C ) :  -0.2089 B(  3-C ,  9-H ) :   0.7915 
B(  3-C , 11-H ) :   0.4560 B(  3-C , 12-N ) :   0.8510 B(  3-C , 13-H ) :  -0.1323 
B(  4-C ,  5-C ) :   0.8575 B(  4-C ,  6-O ) :   0.2248 B(  4-C ,  8-H ) :   0.1286 
B(  4-C ,  9-H ) :  -1.0520 B(  5-C ,  6-O ) :   0.3254 B(  5-C ,  8-H ) :   0.5866 
B(  5-C ,  9-H ) :   0.3588 B(  5-C , 10-H ) :  -0.1622 B(  6-O ,  7-H ) :   1.0115 
B(  9-H , 12-N ) :  -0.1124 B( 11-H , 12-N ) :  -0.1016 B( 12-N , 13-H ) :   1.0506 
B( 12-N , 14-H ) :   1.1567 

-------
TIMINGS
-------

Total SCF time: 0 days 0 hours 6 min 3 sec 

Total time                  ....     363.894 sec
Sum of individual times     ....     363.829 sec  (100.0%)

Fock matrix formation       ....     359.518 sec  ( 98.8%)
  XC integration            ....      14.158 sec  (  3.9% of F)
    Basis function eval.    ....       6.538 sec  ( 46.2% of XC)
    Density eval.           ....       1.698 sec  ( 12.0% of XC)
    XC-Functional eval.     ....       0.243 sec  (  1.7% of XC)
    XC-Potential eval.      ....       5.575 sec  ( 39.4% of XC)
Diagonalization             ....       0.058 sec  (  0.0%)
Density matrix formation    ....       0.009 sec  (  0.0%)
Population analysis         ....       0.022 sec  (  0.0%)
Initial guess               ....       1.495 sec  (  0.4%)
Orbital Transformation      ....       0.000 sec  (  0.0%)
Orbital Orthonormalization  ....       0.000 sec  (  0.0%)
DIIS solution               ....       0.012 sec  (  0.0%)
SOSCF solution              ....       0.053 sec  (  0.0%)
Grid generation             ....       2.662 sec  (  0.7%)

-------------------------   --------------------
FINAL SINGLE POINT ENERGY      -362.648951867281
-------------------------   --------------------


                            ***************************************
                            *     ORCA property calculations      *
                            ***************************************

                                    ---------------------
                                    Active property flags
                                    ---------------------
   (+) Dipole Moment
   (+) Chemical Shifts


------------------------------------------------------------------------------
                       ORCA ELECTRIC PROPERTIES CALCULATION
------------------------------------------------------------------------------

Dipole Moment Calculation                       ... on
Quadrupole Moment Calculation                   ... off
Polarizability Calculation                      ... off
GBWName                                         ... /home/jan/SoftwareDevelopment/ORCAunleashed/output/meta_amino_phenol/meta_amino_phenol.gbw
Electron density file                           ... /home/jan/SoftwareDevelopment/ORCAunleashed/output/meta_amino_phenol/meta_amino_phenol.scfp.tmp

-------------
DIPOLE MOMENT
-------------
                                X             Y             Z
Electronic contribution:     -2.31986       0.37659       1.28057
Nuclear contribution   :      3.11414       0.37497      -1.53542
                        -----------------------------------------
Total Dipole Moment    :      0.79428       0.75155      -0.25485
                        -----------------------------------------
Magnitude (a.u.)       :      1.12279
Magnitude (Debye)      :      2.85392

------------------------------------------------------------------------------
                                ORCA EPR/NMR CALCULATION
------------------------------------------------------------------------------

GBWName                      ... /home/jan/SoftwareDevelopment/ORCAunleashed/output/meta_amino_phenol/meta_amino_phenol.gbw
Electron density file        ... /home/jan/SoftwareDevelopment/ORCAunleashed/output/meta_amino_phenol/meta_amino_phenol.scfp.tmp
Spin density file            ... /home/jan/SoftwareDevelopment/ORCAunleashed/output/meta_amino_phenol/meta_amino_phenol.scfr.tmp
Treatment of gauge           ... GIAO (approximations 1/2el = 0,3)
Details of the CP(SCF) procedure:
       Solver   = POPLE   
       MaxIter  =    64   
       Tolerance=    1.000e-06
       Op-0     =   0- 28 =>  29-246
Multiplicity                 ... 1
g-tensor                     ... 0
NMR chemical shifts          ... 1
Number of nuclei for epr/nmr ... 15
   Nucleus:   0C 
       Hyperfine : Isotope=   13 I=   0.500 P= 134.188
       Quadrupole: Isotope=   13 I=   0.500 Q=   0.000
       Spin-Orbit: Zeff=   3.600
       rho(0)=N f(grad)=N a(iso)=N a(dip)=N a(orb)=N sigma(nmr)=Y
   Nucleus:   1C 
       Hyperfine : Isotope=   13 I=   0.500 P= 134.188
       Quadrupole: Isotope=   13 I=   0.500 Q=   0.000
       Spin-Orbit: Zeff=   3.600
       rho(0)=N f(grad)=N a(iso)=N a(dip)=N a(orb)=N sigma(nmr)=Y
   Nucleus:   2C 
       Hyperfine : Isotope=   13 I=   0.500 P= 134.188
       Quadrupole: Isotope=   13 I=   0.500 Q=   0.000
       Spin-Orbit: Zeff=   3.600
       rho(0)=N f(grad)=N a(iso)=N a(dip)=N a(orb)=N sigma(nmr)=Y
   Nucleus:   3C 
       Hyperfine : Isotope=   13 I=   0.500 P= 134.188
       Quadrupole: Isotope=   13 I=   0.500 Q=   0.000
       Spin-Orbit: Zeff=   3.600
       rho(0)=N f(grad)=N a(iso)=N a(dip)=N a(orb)=N sigma(nmr)=Y
   Nucleus:   4C 
       Hyperfine : Isotope=   13 I=   0.500 P= 134.188
       Quadrupole: Isotope=   13 I=   0.500 Q=   0.000
       Spin-Orbit: Zeff=   3.600
       rho(0)=N f(grad)=N a(iso)=N a(dip)=N a(orb)=N sigma(nmr)=Y
   Nucleus:   5C 
       Hyperfine : Isotope=   13 I=   0.500 P= 134.188
       Quadrupole: Isotope=   13 I=   0.500 Q=   0.000
       Spin-Orbit: Zeff=   3.600
       rho(0)=N f(grad)=N a(iso)=N a(dip)=N a(orb)=N sigma(nmr)=Y
   Nucleus:   6O 
       Hyperfine : Isotope=   17 I=   2.500 P= -72.357
       Quadrupole: Isotope=   17 I=   2.500 Q=  -0.026
       Spin-Orbit: Zeff=   5.600
       rho(0)=N f(grad)=N a(iso)=N a(dip)=N a(orb)=N sigma(nmr)=Y
   Nucleus:   7H 
       Hyperfine : Isotope=    1 I=   0.500 P= 533.552
       Quadrupole: Isotope=    2 I=   1.000 Q=   0.003
       Spin-Orbit: Zeff=   1.000
       rho(0)=N f(grad)=N a(iso)=N a(dip)=N a(orb)=N sigma(nmr)=Y
   Nucleus:   8H 
       Hyperfine : Isotope=    1 I=   0.500 P= 533.552
       Quadrupole: Isotope=    2 I=   1.000 Q=   0.003
       Spin-Orbit: Zeff=   1.000
       rho(0)=N f(grad)=N a(iso)=N a(dip)=N a(orb)=N sigma(nmr)=Y
   Nucleus:   9H 
       Hyperfine : Isotope=    1 I=   0.500 P= 533.552
       Quadrupole: Isotope=    2 I=   1.000 Q=   0.003
       Spin-Orbit: Zeff=   1.000
       rho(0)=N f(grad)=N a(iso)=N a(dip)=N a(orb)=N sigma(nmr)=Y
   Nucleus:  10H 
       Hyperfine : Isotope=    1 I=   0.500 P= 533.552
       Quadrupole: Isotope=    2 I=   1.000 Q=   0.003
       Spin-Orbit: Zeff=   1.000
       rho(0)=N f(grad)=N a(iso)=N a(dip)=N a(orb)=N sigma(nmr)=Y
   Nucleus:  11H 
       Hyperfine : Isotope=    1 I=   0.500 P= 533.552
       Quadrupole: Isotope=    2 I=   1.000 Q=   0.003
       Spin-Orbit: Zeff=   1.000
       rho(0)=N f(grad)=N a(iso)=N a(dip)=N a(orb)=N sigma(nmr)=Y
   Nucleus:  12N 
       Hyperfine : Isotope=   14 I=   1.000 P=  38.571
       Quadrupole: Isotope=   14 I=   1.000 Q=   0.020
       Spin-Orbit: Zeff=   4.550
       rho(0)=N f(grad)=N a(iso)=N a(dip)=N a(orb)=N sigma(nmr)=Y
   Nucleus:  13H 
       Hyperfine : Isotope=    1 I=   0.500 P= 533.552
       Quadrupole: Isotope=    2 I=   1.000 Q=   0.003
       Spin-Orbit: Zeff=   1.000
       rho(0)=N f(grad)=N a(iso)=N a(dip)=N a(orb)=N sigma(nmr)=Y
   Nucleus:  14H 
       Hyperfine : Isotope=    1 I=   0.500 P= 533.552
       Quadrupole: Isotope=    2 I=   1.000 Q=   0.003
       Spin-Orbit: Zeff=   1.000
       rho(0)=N f(grad)=N a(iso)=N a(dip)=N a(orb)=N sigma(nmr)=Y
Using LibInt in CPSCF-CP

Forming RHS of the CP-SCF equations         ... 
Calculating right hand sides for GIAO treatment (new)  ... 
  Entering RightHandSide GIAO. ScalHFX=    0.2000 NeedHFX=1
     -> 1-electron GIAO integrals will be done analytically
     -> SCF done analytically but RIJK requested in GIAOs
     -> using RIJK
     Making grid for GIAO integrations   ... done
     Test of existence of the V matrix   = 0
     Test of existence of the VCD matrix = 0
     Test of existence of the VO matrix  = 0
     Warning: RI is turned on for GIAO but the V matrix or its Cholesky decomposition are not found - making it
     Calculating V           ... done
     Cholesky decomposition  ... done
     Storing V and VCD       ... done
     Cholesky decomposition-2... done
     Storing VO              ... done
  Getting the pre-screening matrix        ... done
  Extracting occupied and virtual blocks  ... 
  Operator  0  NO=  29 NV= 218 
  One-electron GIAO integrals             ...   done
  Transforming and RHS contribution       ...   done
  Projecting overlap derivatives          ...   done
  Building G(dS/dB_ij)                    ...   done
  Transforming to MO basis/RHS contribs.  ...   done
  Calculating F[B](P)                     ...  (RI-JK)
---------------------
RI-GIAO-TRANSFORMATION (AUX index driven)
----------------------

Dimension of the orbital-basis         ... 247
Dimension of the aux-basis             ... 1673
Number of (i,a) MOs                    ... 29,218
Number of ij,ia,ab pairs               ... 841,6322,47524
Transformation of internal MOs         ...    0-  28
Transformation of internal/external MOs...    0-  28 to   29- 246

Mapping shells                                 ... done
Making shell addresses                         ... done
Figuring out significant basis function pairs  ... done
  N(Pairs)         ... 30628
  N(Strong pairs)  ... 30089
  Mem-Available    ... 1024 MB
  (p,q) per batch  ... 10023
  N(Batches)       ... 4
Preparing matrix containers                    ... done
Preparing AO buffer                            ... done
Calculating AO integrals and transforming AUX  ... done
Finished RI-GIAO integral generation and aux-index transformation in 23.021 sec
Mapping the MO pairs                            ... done
Getting memory                                  ... done
Second Phase: sorting and transformation of MO indices
Memory available                       ... 1024 MB 
Max. # Aux fcns treated in a batch     ... 1094    
Initializing the MO transformation process      ... done
Batch   0: Q=   0 ... 1093
   Reading      ... done
   Transforming ... done
Batch   1: Q=1094 ... 1672
   Reading      ... done
   Transforming ... done
Finished transformation of the MO indices in 19.865 sec
Initializing the sorting process                ... done

IJ-Resorting
# of internal pairs                    ... 841
# batches for internal pairs           ... 1
   (0) Reading      ... done
   (0) Writing      ... done
   (1) Reading      ... done
   (1) Writing      ... done
   (2) Reading      ... done
   (2) Writing      ... done
   (3) Reading      ... done
   (3) Writing      ... done
(ij|v) resorting done in     0.215 sec

IA-Resorting
# of internal orbitals                 ... 29
# batches for internal orbitals        ... 1
   (0) Reading      ... done
   (0) Writing      ... done
   (1) Reading      ... done
   (1) Writing      ... done
   (2) Reading      ... done
   (2) Writing      ... done
   (3) Reading      ... done
   (3) Writing      ... done
(ia|v) resorting done in     0.367 sec

  Resorting completed in     0.586 sec
RI-GIAO-Integral transformation completed in    43.519 sec
Reading RI-integrals ... done
Doing RI-JK          ... done
 => dG/dB done
  RI-JK GIAO contributions                ...   done
  DFT XC-terms                            ... done
  Transforming to MO basis/RHS contribs.  ... done
  GIAO profiling information: 
    Total GIAO time               ...     190.2 sec
       Grid setup                 ...       0.5 sec (  0.3%)
       RI-V-matrix setup          ...       0.4 sec (  0.2%)
       GIAO 1-electron integrals  ...       0.1 sec (  0.0%)
       GIAO G(dS/dB) terms        ...      35.0 sec ( 18.4%)
       GIAO RI-JK                 ...     106.2 sec ( 55.9%)
       GIAO RI integral trafo     ...      43.5 sec ( 22.9%)
       GIAO XC-terms              ...       4.5 sec (  2.4%)
       Right hand side assembly   ...       0.0 sec (  0.0%)

  GIAO right hand side done

     CP-SCF ITERATION   0: 
     CP-SCF ITERATION   1:      0.089084545
     CP-SCF ITERATION   2:      0.000244258
     CP-SCF ITERATION   3:      0.000000572

Forming final perturbed densities           ... done
Transforming perturbed density to AO basis  ...  done

Magnetic field perturbation calculated in 330.170 sec

---------------
CHEMICAL SHIFTS
---------------

Note: using conversion factor for au to ppm alpha^2/2 =   26.625677252 
Doing GIAO para- and diamagnetic shielding integrals analytically     ...done
Doing remaining GIAO terms numerically                                ...done
 --------------
 Nucleus   0C :
 --------------

Diamagnetic contribution to the shielding tensor (ppm) : 
           313.162        -41.382        88.281
           -10.229        244.263       -44.722
            69.510        -19.563       460.002

Paramagnetic contribution to the shielding tensor (ppm): 
          -257.224          2.317       -35.168
           -30.377       -190.465        42.169
           -16.809         16.237      -314.183

Total shielding tensor (ppm): 
            55.938        -39.064        53.113
           -40.606         53.798        -2.554
            52.701         -3.326       145.819


 Diagonalized sT*s matrix:
 
 sDSO           253.587          264.078          499.762  iso=     339.142
 sPSO          -248.419         -187.367         -326.087  iso=    -253.957
        ---------------  ---------------  ---------------
 Total            5.168           76.711          173.676  iso=      85.185

 --------------
 Nucleus   1C :
 --------------

Diamagnetic contribution to the shielding tensor (ppm) : 
           298.823         -0.585       121.837
            -6.569        258.231       -51.128
            98.706         21.670       487.972

Paramagnetic contribution to the shielding tensor (ppm): 
          -222.099        -16.502       -76.982
            -2.313       -303.907        13.412
           -52.271        -55.427      -348.296

Total shielding tensor (ppm): 
            76.723        -17.086        44.855
            -8.882        -45.676       -37.717
            46.434        -33.757       139.676


 Diagonalized sT*s matrix:
 
 sDSO           257.336          252.970          534.720  iso=     348.342
 sPSO          -259.919         -249.890         -364.494  iso=    -291.434
        ---------------  ---------------  ---------------
 Total           -2.583            3.080          170.226  iso=      56.908

 --------------
 Nucleus   2C :
 --------------

Diamagnetic contribution to the shielding tensor (ppm) : 
           169.884         16.206       -88.147
            36.404        232.322        28.157
          -121.654         -3.166        55.609

Paramagnetic contribution to the shielding tensor (ppm): 
          -112.772          0.984       148.088
           -20.684       -170.211       -56.859
           181.478        -26.045        74.294

Total shielding tensor (ppm): 
            57.112         17.190        59.940
            15.720         62.110       -28.702
            59.824        -29.211       129.903


 Diagonalized sT*s matrix:
 
 sDSO           219.235          245.343           -6.762  iso=     152.605
 sPSO          -211.355         -170.665          173.330  iso=     -69.563
        ---------------  ---------------  ---------------
 Total            7.880           74.678          166.568  iso=      83.042

 --------------
 Nucleus   3C :
 --------------

Diamagnetic contribution to the shielding tensor (ppm) : 
           194.702          3.344       -71.034
            22.774        243.497        25.068
          -100.726         30.395       113.729

Paramagnetic contribution to the shielding tensor (ppm): 
          -184.832        -48.053       131.731
           -67.430       -242.789       -30.167
           161.478        -35.583        -1.751

Total shielding tensor (ppm): 
             9.870        -44.709        60.698
           -44.656          0.708        -5.099
            60.752         -5.188       111.978


 Diagonalized sT*s matrix:
 
 sDSO           252.066          244.095           55.767  iso=     183.976
 sPSO          -224.389         -293.586           88.603  iso=    -143.124
        ---------------  ---------------  ---------------
 Total           27.677          -49.491          144.370  iso=      40.852

 --------------
 Nucleus   4C :
 --------------

Diamagnetic contribution to the shielding tensor (ppm) : 
           215.653         -2.368       -53.981
            40.089        229.056         3.096
           -57.182        -11.396       137.642

Paramagnetic contribution to the shielding tensor (ppm): 
          -116.206         -4.603        81.735
           -41.873       -195.382       -26.143
            86.038         -8.921        -0.640

Total shielding tensor (ppm): 
            99.447         -6.971        27.754
            -1.784         33.674       -23.048
            28.856        -20.317       137.003


 Diagonalized sT*s matrix:
 
 sDSO           224.212          247.540          110.599  iso=     194.117
 sPSO          -194.892         -162.615           45.279  iso=    -104.076
        ---------------  ---------------  ---------------
 Total           29.320           84.925          155.878  iso=      90.041

 --------------
 Nucleus   5C :
 --------------

Diamagnetic contribution to the shielding tensor (ppm) : 
           200.852         14.325       -59.864
            29.115        241.157        17.449
           -51.825         82.896       121.597

Paramagnetic contribution to the shielding tensor (ppm): 
          -203.043          7.337       127.181
           -16.635       -225.124       -44.279
           117.497       -114.456       -41.795

Total shielding tensor (ppm): 
            -2.191         21.661        67.317
            12.481         16.033       -26.830
            65.672        -31.559        79.802


 Diagonalized sT*s matrix:
 
 sDSO           243.389          241.547           78.670  iso=     187.868
 sPSO          -220.322         -290.883           41.244  iso=    -156.654
        ---------------  ---------------  ---------------
 Total           23.066          -49.336          119.914  iso=      31.215

 --------------
 Nucleus   6O :
 --------------

Diamagnetic contribution to the shielding tensor (ppm) : 
           415.922          7.551        64.869
           -11.742        400.789       -20.926
            62.308          0.113       505.714

Paramagnetic contribution to the shielding tensor (ppm): 
          -182.164        -37.305       -78.035
           -28.915       -212.446        35.862
           -77.037          9.346      -276.887

Total shielding tensor (ppm): 
           233.758        -29.755       -13.166
           -40.658        188.343        14.936
           -14.729          9.459       228.827


 Diagonalized sT*s matrix:
 
 sDSO           400.098          538.241          384.084  iso=     440.808
 sPSO          -231.214         -318.839         -121.443  iso=    -223.832
        ---------------  ---------------  ---------------
 Total          168.885          219.402          262.641  iso=     216.976

 --------------
 Nucleus   7H :
 --------------

Diamagnetic contribution to the shielding tensor (ppm) : 
            45.349          3.558        15.661
            -1.896         40.746        -5.665
            21.229          4.657        63.418

Paramagnetic contribution to the shielding tensor (ppm): 
           -19.176         -4.976       -18.942
             2.660         -5.564         8.218
           -24.038         -1.329       -40.955

Total shielding tensor (ppm): 
            26.173         -1.418        -3.281
             0.763         35.181         2.553
            -2.809          3.329        22.463


 Diagonalized sT*s matrix:
 
 sDSO            73.714           34.934           40.865  iso=      49.838
 sPSO           -53.362           -7.398           -4.936  iso=     -21.898
        ---------------  ---------------  ---------------
 Total           20.352           27.536           35.929  iso=      27.939

 --------------
 Nucleus   8H :
 --------------

Diamagnetic contribution to the shielding tensor (ppm) : 
            43.681          1.165        19.632
             0.079         37.627        -8.625
            10.615         -0.121        75.799

Paramagnetic contribution to the shielding tensor (ppm): 
           -18.936         -2.263       -21.114
            -1.121        -11.205         9.967
           -12.151          1.508       -52.443

Total shielding tensor (ppm): 
            24.745         -1.098        -1.482
            -1.042         26.422         1.342
            -1.536          1.386        23.357


 Diagonalized sT*s matrix:
 
 sDSO            81.222           39.708           36.177  iso=      52.369
 sPSO           -58.931          -15.255           -8.399  iso=     -27.528
        ---------------  ---------------  ---------------
 Total           22.292           24.452           27.779  iso=      24.841

 --------------
 Nucleus   9H :
 --------------

Diamagnetic contribution to the shielding tensor (ppm) : 
            67.040        -12.719        48.841
           -13.957         41.465       -16.807
            53.876        -22.060       133.205

Paramagnetic contribution to the shielding tensor (ppm): 
           -38.326         12.846       -51.732
            14.777        -17.052        16.634
           -56.811         22.297      -108.590

Total shielding tensor (ppm): 
            28.714          0.127        -2.891
             0.820         24.413        -0.173
            -2.935          0.237        24.615


 Diagonalized sT*s matrix:
 
 sDSO           165.612           37.358           38.741  iso=      80.570
 sPSO          -142.554          -12.927           -8.487  iso=     -54.656
        ---------------  ---------------  ---------------
 Total           23.058           24.431           30.254  iso=      25.914

 --------------
 Nucleus  10H :
 --------------

Diamagnetic contribution to the shielding tensor (ppm) : 
            40.937         -1.093        14.916
            -2.238         36.185        -5.990
             4.457          5.214        69.484

Paramagnetic contribution to the shielding tensor (ppm): 
           -14.930          0.841       -17.057
             2.663        -13.198         5.973
            -6.415         -4.745       -46.441

Total shielding tensor (ppm): 
            26.007         -0.252        -2.140
             0.424         22.987        -0.017
            -1.959          0.469        23.043


 Diagonalized sT*s matrix:
 
 sDSO            70.170           37.376           39.061  iso=      48.869
 sPSO           -48.229          -14.334          -12.007  iso=     -24.856
        ---------------  ---------------  ---------------
 Total           21.941           23.042           27.054  iso=      24.012

 --------------
 Nucleus  11H :
 --------------

Diamagnetic contribution to the shielding tensor (ppm) : 
            -3.666          7.223       -72.335
            19.807         34.666        24.807
           -84.395          6.679      -100.521

Paramagnetic contribution to the shielding tensor (ppm): 
            29.261         -4.818        71.009
           -18.265         -6.878       -24.504
            82.894         -6.738       123.382

Total shielding tensor (ppm): 
            25.594          2.405        -1.326
             1.543         27.788         0.303
            -1.502         -0.059        22.860


 Diagonalized sT*s matrix:
 
 sDSO          -145.525           35.641           40.363  iso=     -23.174
 sPSO           167.627          -10.514          -11.349  iso=      48.588
        ---------------  ---------------  ---------------
 Total           22.102           25.127           29.014  iso=      25.414

 --------------
 Nucleus  12N :
 --------------

Diamagnetic contribution to the shielding tensor (ppm) : 
           205.829         20.366       -95.013
            26.439        289.550        40.430
          -145.056         64.866       102.550

Paramagnetic contribution to the shielding tensor (ppm): 
            24.910          4.794        75.060
           -15.092       -104.557       -45.719
           122.824        -76.876        89.033

Total shielding tensor (ppm): 
           230.739         25.160       -19.953
            11.347        184.994        -5.289
           -22.232        -12.011       191.584


 Diagonalized sT*s matrix:
 
 sDSO           302.275           16.772          278.882  iso=     199.310
 sPSO          -123.967          165.698          -32.344  iso=       3.129
        ---------------  ---------------  ---------------
 Total          178.308          182.470          246.538  iso=     202.439

 --------------
 Nucleus  13H :
 --------------

Diamagnetic contribution to the shielding tensor (ppm) : 
            15.139          6.346       -29.370
             8.747         37.325        11.167
           -36.144         16.747       -20.801

Paramagnetic contribution to the shielding tensor (ppm): 
            16.620         -9.601        23.274
            -8.989         -9.196        -9.678
            30.656        -13.641        45.410

Total shielding tensor (ppm): 
            31.760         -3.255        -6.097
            -0.242         28.129         1.489
            -5.488          3.106        24.609


 Diagonalized sT*s matrix:
 
 sDSO           -43.028           39.341           35.351  iso=      10.554
 sPSO            64.199          -11.911            0.545  iso=      17.611
        ---------------  ---------------  ---------------
 Total           21.171           27.430           35.896  iso=      28.166

 --------------
 Nucleus  14H :
 --------------

Diamagnetic contribution to the shielding tensor (ppm) : 
            28.171         -1.719        -2.123
            -4.052         39.210         5.261
            -5.469          2.185        27.999

Paramagnetic contribution to the shielding tensor (ppm): 
            -1.542          7.740         0.825
             7.392         -6.280        -4.786
             3.572         -2.955        -5.367

Total shielding tensor (ppm): 
            26.629          6.021        -1.298
             3.340         32.930         0.475
            -1.897         -0.770        22.632


 Diagonalized sT*s matrix:
 
 sDSO            24.665           36.367           34.348  iso=      31.793
 sPSO            -2.861          -11.457            1.128  iso=      -4.397
        ---------------  ---------------  ---------------
 Total           21.804           24.910           35.476  iso=      27.397



--------------------------
CHEMICAL SHIELDING SUMMARY (ppm)
--------------------------


  Nucleus  Element    Isotropic     Anisotropy
  -------  -------  ------------   ------------
      0       C           85.185        132.736 
      1       C           56.908        169.977 
      2       C           83.042        125.289 
      3       C           40.852        155.277 
      4       C           90.041         98.756 
      5       C           31.215        133.049 
      6       O          216.976         68.497 
      7       H           27.939         11.985 
      8       H           24.841          4.406 
      9       H           25.914          6.510 
     10       H           24.012          4.563 
     11       H           25.414          5.399 
     12       N          202.439         66.149 
     13       H           28.166         11.596 
     14       H           27.397         12.119 



Timings for individual modules:

Sum of individual times         ...      812.509 sec (=  13.542 min)
GTO integral calculation        ...        0.374 sec (=   0.006 min)   0.0 %
SCF iterations                  ...      363.902 sec (=   6.065 min)  44.8 %
SCF-level EPR/NMR calculation   ...      448.232 sec (=   7.471 min)  55.2 %
                             ****ORCA TERMINATED NORMALLY****
TOTAL RUN TIME: 0 days 0 hours 13 minutes 32 seconds 632 msec
