10
	Energy:       8.0516463
C         -5.18656        2.22320        3.82079
C         -4.79269        3.65386        4.07997
O         -4.91908        2.70380        5.14486
H         -5.55435        4.41951        4.00163
H         -3.79328        3.98332        3.82459
C         -4.20347        1.21792        3.33422
H         -6.21228        1.98103        3.57738
H         -3.20804        1.65304        3.19928
H         -4.52620        0.81059        2.37117
H         -4.12255        0.38785        4.04293


